version 2
run General-2-20161124-17:05:56-3476
attr configname General
attr datetime 20161124-17:05:56
attr experiment General
attr inifile omnetpp.ini
attr iterationvars ""
attr iterationvars2 $repetition=2
attr measurement ""
attr network Bar1
attr processid 3476
attr repetition 2
attr replication #2
attr resultdir results
attr runnumber 2
attr seedset 2

vector 0  Bar1.k.o  TimeBetweenReception:vector  ETV
attr source  TimeBetweenReception
attr title  "TimeBetweenReception, vector"
0	2	1.307984707877	1.307
0	4	1.863230952295	0.555
0	6	1.941009636038	0.077
0	8	4.735632226803	2.794
0	10	6.384619654623	1.648
0	12	9.22781148716	2.843
0	14	10.533778666753	1.305
0	16	11.988025955392	1.454
0	18	13.249129360078	1.261
0	20	14.210738668919	0.961
0	22	15.201743129876	0.991
0	24	15.665023156444	0.463
0	26	16.27896906459	0.613
0	28	18.375557132533	2.096
0	30	20.233370043572	1.857
0	32	20.593221675141	0.359
0	34	21.492185706973	0.898
0	36	22.947713451462	1.455
0	38	23.748195280789	0.8
0	40	25.646408472678	1.898
0	42	27.509809972255	1.863
0	44	29.964490138462	2.454
0	46	31.551916409519	1.587
0	48	33.600994394629	2.049
0	50	34.004734221616	0.403
0	52	35.500417724488	1.495
0	54	37.041152077963	1.54
0	56	38.801543014826	1.76
0	58	39.354862603362	0.553
0	60	41.514125296151	2.159
0	62	43.870130738713	2.356
0	64	44.645624983128	0.775
0	66	47.207550855823	2.561
0	68	48.846172805181	1.638
0	70	50.328883326384	1.482
0	72	51.550806823889	1.221
0	74	54.090491297659	2.539
0	76	54.621445168978	0.53
0	78	54.860381581825	0.238
0	80	57.769278804776	2.908
0	82	59.285017071296	1.515
0	84	60.176072150939	0.891
0	86	60.371931661856	0.195
0	88	61.23553812155	0.863
0	90	62.519905115016	1.284
0	92	62.868485083109	0.348
0	94	63.158077847682	0.289
0	96	63.70325895958	0.545
0	98	64.084738874811	0.381
0	100	65.567608178596	1.482
0	102	67.357844102665	1.79
0	104	69.055139493666	1.697
0	106	69.733175503093	0.678
0	108	70.398681004535	0.665
0	110	70.719518058471	0.32
0	112	73.021991587946	2.302
0	114	73.682910206731	0.66
0	116	75.414834417173	1.731
0	118	76.464313273321	1.049
0	120	76.967783216623	0.503
0	122	78.371145671935	1.403
0	124	79.473559778885	1.102
0	126	80.078789459777	0.605
0	128	81.484810207042	1.406
0	130	83.406030386224	1.921
0	132	85.368828932525	1.962
0	134	86.81803842774	1.449
0	136	89.197307656755	2.379
0	138	90.713017807578	1.515
0	140	92.702203194148	1.989
0	142	93.862881145676	1.16
0	144	95.701970226833	1.839
0	146	98.082882584774	2.38
0	148	101.055438575571	2.972
0	150	102.795451124202	1.74
0	152	103.153905521849	0.358
0	154	103.640801331498	0.486
0	156	104.086495672589	0.445
0	158	106.188752703139	2.102
0	160	108.745595802323	2.556
0	162	111.639249049363	2.893
0	164	113.167826688619	1.528
0	166	114.667851780545	1.5
0	168	115.319661539983	0.651
0	170	117.988221717304	2.668
0	172	120.968020593053	2.979
0	174	121.99286156218	1.024
0	176	122.938754005595	0.945
0	178	124.640186388283	1.701
0	180	125.416385901398	0.776
0	182	126.699023794155	1.282
0	184	129.12654964929	2.427
0	186	130.436791436053	1.31
0	188	131.497817556146	1.061
0	190	133.827495120238	2.329
0	192	135.231022594967	1.403
0	194	136.837835124699	1.606
0	196	137.660354885045	0.822
0	198	140.521581552229	2.861
0	200	142.916182718943	2.394
0	202	144.548807185381	1.632
0	204	146.991222436079	2.442
0	206	147.237507198476	0.246
0	208	150.081778468569	2.844
0	210	151.1808056559	1.099
0	212	153.649459561105	2.468
0	214	156.202011067192	2.552
0	216	157.747428432577	1.545
0	218	158.966253577037	1.218
0	220	159.629248040499	0.662
0	222	159.710855138957	0.081
0	224	161.950749377956	2.239
0	226	162.692281088795	0.741
0	228	163.986894398698	1.294
0	230	164.188327503627	0.201
0	232	166.853238743035	2.664
0	234	169.834794774422	2.981
0	236	172.658374683003	2.823
0	238	175.570115627258	2.911
0	240	177.079152377092	1.509
0	242	179.479927428768	2.4
0	244	181.586053539536	2.106
0	246	183.391504894945	1.805
0	248	185.511130901057	2.119
0	250	187.806010489821	2.294
0	252	189.249075755247	1.443
0	254	189.756752092394	0.507
0	256	192.63769328222	2.88
0	258	193.516762979332	0.879
0	260	194.794830560455	1.278
0	262	196.367031195205	1.572
0	264	197.335653846389	0.968
0	266	198.405526687395	1.069
0	268	200.691316684013	2.285
0	270	200.82835357916	0.137
0	272	203.626239261594	2.797
0	274	206.575699587357	2.949
0	276	208.709351310045	2.133
0	278	210.033416063529	1.324
0	280	211.585708346921	1.552
0	282	213.097709664148	1.512
0	284	215.751124461884	2.653
0	286	216.721748412591	0.97
0	288	218.382649950222	1.66
0	290	219.161884204722	0.779
0	292	220.882811699766	1.72
0	294	222.043481351813	1.16
0	296	223.225281225756	1.181
0	298	225.721331925603	2.496
0	300	228.500972171087	2.779
0	302	230.711213353794	2.21
0	304	230.727846616885	0.016
0	306	231.865478316794	1.137
0	308	234.050973823999	2.185
0	310	234.090025838005	0.039
0	312	235.157286709646	1.067
0	314	237.549501540145	2.392
0	316	238.18830126641	0.638
0	318	238.996467669966	0.808
0	320	240.082549890044	1.086
0	322	241.830604556954	1.748
0	324	244.46550542303	2.634
0	326	244.542158258619	0.076
0	328	245.632135932572	1.089
0	330	247.618741998687	1.986
0	332	249.128362749941	1.509
0	334	250.290933032059	1.162
0	336	252.593397808033	2.302
0	338	254.084619193575	1.491
0	340	256.828045909064	2.743
0	342	258.072763409004	1.244
0	344	260.551867426144	2.479
0	346	261.60448313272	1.052
0	348	262.839722454784	1.235
0	350	264.49265616923	1.652
0	352	266.38518413762	1.892
0	354	269.30391621008	2.918
0	356	270.329651026059	1.025
0	358	270.667979673021	0.338
0	360	271.813058488541	1.145
0	362	272.752834057207	0.939
0	364	275.64021278406	2.887
0	366	275.765605904632	0.125
0	368	277.706648582131	1.941
0	370	279.921847846363	2.215
0	372	282.795384861766	2.873
0	374	284.767922013071	1.972
0	376	287.1782784008	2.41
0	378	287.822185644652	0.643
0	380	288.510343536972	0.688
0	382	289.760603847685	1.25
0	384	292.398209938784	2.637
0	386	294.329735727985	1.931
0	388	296.107224817625	1.777
0	390	298.091668791375	1.984
0	392	300.450185528961	2.358
0	394	300.961616925201	0.511
0	396	302.558050247612	1.596
0	398	305.203006934612	2.644
0	400	308.107878651475	2.904
0	402	310.441903125034	2.334
0	404	312.166763738036	1.724
0	406	312.568626373546	0.401
0	408	313.999156592186	1.43
0	410	316.605906482325	2.606
0	412	317.869321585172	1.263
0	414	320.115655219886	2.246
0	416	321.912595137493	1.796
0	418	324.308352102996	2.395
0	420	324.62806970417	0.319
0	422	326.25810540305	1.63
0	424	327.363928027689	1.105
0	426	328.026441778527	0.662
0	428	328.673860970657	0.647
0	430	331.429236893082	2.755
0	432	333.85087031569	2.421
0	434	335.62712403434	1.776
0	436	338.021785800118	2.394
0	438	339.060499537742	1.038
0	440	340.724117958226	1.663
0	442	341.515453537234	0.791
0	444	344.200890753425	2.685
0	446	346.94263718371	2.741
0	448	349.730056885869	2.787
0	450	350.989263266098	1.259
0	452	353.922163438523	2.932
0	454	355.542737968504	1.62
0	456	358.295894133864	2.753
0	458	360.121220628038	1.825
0	460	360.241254333179	0.12
0	462	362.720003813277	2.478
0	464	364.918471276066	2.198
0	466	366.789160820893	1.87
0	468	369.478282450004	2.689
0	470	370.008418931397	0.53
0	472	372.521910575223	2.513
0	474	374.295682642846	1.773
0	476	375.905043737036	1.609
0	478	377.372842239919	1.467
0	480	378.336797990608	0.963
0	482	379.980521325492	1.643
0	484	381.172283302298	1.191
0	486	383.270845170137	2.098
0	488	384.103162815799	0.832
0	490	384.840596299157	0.737
0	492	387.649340429115	2.808
0	494	388.209221861097	0.559
0	496	389.600449685012	1.391
0	498	389.932199122622	0.331
0	500	392.489066003361	2.556
0	502	393.311243774374	0.822
0	504	393.949545887304	0.638
0	506	393.980296011088	0.03
0	508	393.98066676362	0
0	510	395.868745943304	1.888
0	512	396.147434741031	0.278
0	514	397.032951658364	0.885
0	516	397.55830082554	0.525
0	518	398.120160457917	0.561
0	520	399.664737959398	1.544
0	522	399.950602108385	0.285
0	524	402.590573161846	2.639
0	526	403.441840579972	0.851
0	528	405.796216348658	2.354
0	530	406.440989491303	0.644
0	532	408.03045301885	1.589
0	534	408.887264215859	0.856
0	536	409.708777824423	0.821
0	538	411.123007399735	1.414
0	540	411.202159838292	0.079
0	542	412.850650294691	1.648
0	544	415.459776158219	2.609
0	546	417.995115519043	2.535
0	548	418.821429112468	0.826
0	550	421.786958231133	2.965
0	552	422.222589301885	0.435
0	554	422.369193561151	0.146
0	556	423.88542846661	1.516
0	558	424.581783216921	0.696
0	560	425.587067209659	1.005
0	562	427.517001491282	1.929
0	564	428.00208778983	0.485
0	566	428.486487490367	0.484
0	568	429.144357409105	0.657
0	570	431.754795088675	2.61
0	572	434.264348042673	2.509
0	574	434.916555310376	0.652
0	576	437.077599382503	2.161
0	578	439.302864515465	2.225
0	580	439.457329086038	0.154
0	582	441.416390614594	1.959
0	584	443.286207613778	1.869
0	586	445.682864156562	2.396
0	588	446.541671911731	0.858
0	590	446.635414595727	0.093
0	592	449.073760450596	2.438
0	594	449.762482534407	0.688
0	596	451.400100643991	1.637
0	598	453.513983144436	2.113
0	600	453.568793252354	0.054
0	602	453.831480779696	0.262
0	604	453.879811575182	0.048
0	606	453.971580008755	0.091
0	608	456.776687192509	2.805
0	610	457.848091996752	1.071
0	612	459.019849036832	1.171
0	614	460.789195011149	1.769
0	616	463.521161561844	2.731
0	618	463.67782973476	0.156
0	620	466.136225861276	2.458
0	622	466.333216871845	0.196
0	624	466.604328005819	0.271
0	626	466.734831567167	0.13
0	628	467.80955249049	1.074
0	630	468.995004769659	1.185
0	632	469.05196015375	0.056
0	634	471.057241301996	2.005
0	636	472.407321468474	1.35
0	638	473.001402810927	0.594
0	640	473.092507566804	0.091
0	642	475.721306930542	2.628
0	644	476.5323688388	0.811
0	646	477.829536139745	1.297
0	648	477.837283863233	0.007
0	650	479.696208247462	1.858
0	652	480.997445993371	1.301
0	654	481.868726230705	0.871
0	656	483.630248834858	1.761
0	658	485.47601254635	1.845
0	660	488.451965293628	2.975
0	662	491.312945186407	2.86
0	664	492.619507666924	1.306
0	666	493.963551809792	1.344
0	668	495.050833956585	1.087
0	670	495.671983460211	0.621
0	672	498.29136548053	2.619
0	674	499.567467367058	1.276
0	676	501.022628665916	1.455
0	678	502.356351454058	1.333
0	680	504.587937544347	2.231
0	682	506.110789992395	1.522
0	684	508.373332849718	2.262
0	686	509.950532606584	1.577
0	688	510.921582214083	0.971
0	690	511.048869786566	0.127
0	692	513.254923969056	2.206
0	694	513.748181242976	0.493
0	696	514.30495045126	0.556
0	698	515.655631989954	1.35
0	700	516.051907264177	0.396
0	702	518.175820787685	2.123
0	704	518.205736505581	0.029
0	706	520.538500241717	2.332
0	708	521.657623406514	1.119
0	710	523.988932417953	2.331
0	712	524.021335186218	0.032
0	714	525.529671428972	1.508
0	716	528.075057437425	2.545
0	718	530.945300230072	2.87
0	720	531.674800596913	0.729
0	722	532.670421728413	0.995
0	724	534.710503490889	2.04
0	726	536.154877964189	1.444
0	728	538.186297193184	2.031
0	730	540.43141918887	2.245
0	732	543.088901392432	2.657
0	734	545.662419944318	2.573
0	736	546.12311696868	0.46
0	738	547.366497127587	1.243
0	740	550.206579498263	2.84
0	742	552.752633055454	2.546
0	744	553.633864257499	0.881
0	746	554.967577080955	1.333
0	748	557.177378692911	2.209
0	750	559.324619953302	2.147
0	752	560.75123686601	1.426
0	754	560.776581960745	0.025
0	756	561.27118338809	0.494
0	758	561.346787658768	0.075
0	760	563.829147710014	2.482
0	762	566.650499197436	2.821
0	764	568.269592626268	1.619
0	766	568.576006476317	0.306
0	768	569.638523743969	1.062
0	770	571.624427107644	1.985
0	772	574.150420159583	2.525
0	774	575.000196400813	0.849
0	776	575.095611032813	0.095
0	778	575.698138077992	0.602
0	780	575.901343795487	0.203
0	782	577.066346329187	1.165
0	784	578.950889985093	1.884
0	786	581.728594776492	2.777
0	788	583.633425305614	1.904
0	790	585.344247930933	1.71
0	792	587.653458835574	2.309
0	794	590.403602683235	2.75
0	796	591.727768560888	1.324
0	798	593.834561281621	2.106
0	800	596.409966304449	2.575
0	802	597.913615669839	1.503
0	804	599.058603402011	1.144
0	806	600.576863886572	1.518
0	808	603.471205850847	2.894
0	810	604.127668199379	0.656
0	812	606.468573811714	2.34
0	814	606.48256437389	0.013
0	816	607.760488623072	1.277
0	818	609.013997362013	1.253
0	820	610.052291809599	1.038
0	822	611.742420138343	1.69
0	824	613.359967972868	1.617
0	826	615.989653578278	2.629
0	828	617.283295290096	1.293
0	830	619.316049808653	2.032
0	832	621.663948862597	2.347
0	834	624.190947994373	2.526
0	836	626.192929495375	2.001
0	838	628.971413341367	2.778
0	840	631.049269950499	2.077
0	842	633.872617585368	2.823
0	844	634.904137271007	1.031
0	846	637.352194734167	2.448
0	848	639.079531730868	1.727
0	850	639.47371555331	0.394
0	852	640.730437489942	1.256
0	854	641.770327552239	1.039
0	856	641.976125113451	0.205
0	858	642.601632596943	0.625
0	860	642.894276808733	0.292
0	862	645.496421433305	2.602
0	864	646.175309911621	0.678
0	866	648.552300560772	2.376
0	868	651.135383592704	2.583
0	870	652.182388517558	1.047
0	872	653.024968489091	0.842
0	874	654.732390090841	1.707
0	876	655.108045798744	0.375
0	878	657.523440419248	2.415
0	880	657.746222844132	0.222
0	882	660.245706573146	2.499
0	884	661.223245372547	0.977
0	886	661.840626406035	0.617
0	888	664.111640324833	2.271
0	890	666.30368092425	2.192
0	892	667.531279863574	1.227
0	894	669.941522360098	2.41
0	896	672.211023211264	2.269
0	898	672.340410321969	0.129
0	900	673.150943601755	0.81
0	902	673.472505802074	0.321
0	904	676.071046527493	2.598
0	906	677.376297475555	1.305
0	908	680.298295574048	2.921
0	910	680.960939231114	0.662
0	912	683.228978252522	2.268
0	914	685.870844436827	2.641
0	916	688.713114461181	2.842
0	918	690.872177091212	2.159
0	920	691.422031443817	0.549
0	922	693.561053314264	2.139
0	924	696.522967881075	2.961
0	926	698.832546851848	2.309
0	928	698.953806212655	0.121
0	930	699.946047297696	0.992
0	932	701.131689474469	1.185
0	934	701.817520226369	0.685
0	936	703.613159371091	1.795
0	938	705.492191257205	1.879
0	940	705.943650651042	0.451
0	942	707.187088397815	1.243
0	944	707.710416868347	0.523
0	946	710.520760092204	2.81
0	948	710.966789070302	0.446
0	950	712.894146346971	1.927
0	952	712.933857448184	0.039
0	954	714.094558483473	1.16
0	956	714.099180689565	0.004
0	958	716.66453969201	2.565
0	960	716.788347043115	0.123
0	962	717.930724786147	1.142
0	964	719.207642519632	1.276
0	966	719.742571997475	0.534
0	968	722.635762694078	2.893
0	970	724.980740981661	2.344
0	972	725.528799987184	0.548
0	974	726.945425752336	1.416
0	976	729.180540533755	2.235
0	978	729.958981745662	0.778
0	980	730.977971558943	1.018
0	982	733.055169287622	2.077
0	984	735.00844585781	1.953
0	986	737.949901090954	2.941
0	988	739.873250776455	1.923
0	990	740.612011550246	0.738
0	992	741.281319395891	0.669
0	994	743.652050791095	2.37
0	996	745.902810580582	2.25
0	998	748.189816324059	2.287
0	1000	749.552051241994	1.362
0	1002	749.912170618791	0.36
0	1004	750.439104677429	0.526
0	1006	752.955812470074	2.516
0	1008	753.720855165756	0.765
0	1010	755.106071874982	1.385
0	1012	757.282962111075	2.176
0	1014	757.660306271649	0.377
0	1016	758.833229057741	1.172
0	1018	760.442259472579	1.609
0	1020	761.602009854762	1.159
0	1022	762.491548111679	0.889
0	1024	764.695604037277	2.204
0	1026	765.222776605764	0.527
0	1028	768.143430554324	2.92
0	1030	768.381145077774	0.237
0	1032	769.108157586788	0.727
0	1034	769.704854873025	0.596
0	1036	770.324711126524	0.619
0	1038	771.613476974207	1.288
0	1040	772.886705068654	1.273
0	1042	774.812140361654	1.925
0	1044	776.965944812881	2.153
0	1046	777.228082333008	0.262
0	1048	779.783099154491	2.555
0	1050	781.930290923236	2.147
0	1052	782.982461543769	1.052
0	1054	783.287695979016	0.305
0	1056	784.377579916749	1.089
0	1058	784.904377141517	0.526
0	1060	785.913256054294	1.008
0	1062	788.053220742165	2.139
0	1064	789.27175603762	1.218
0	1066	791.927547072076	2.655
0	1068	792.108469880667	0.18
0	1070	795.057884981871	2.949
0	1072	795.444419633147	0.386
0	1074	797.403140480646	1.958
0	1076	798.958715574133	1.555
0	1078	800.391924628072	1.433
0	1080	803.042489693981	2.65
0	1082	803.305852366161	0.263
0	1084	803.7958701756	0.49
0	1086	805.472722554594	1.676
0	1088	807.656911373386	2.184
0	1090	808.200362061631	0.543
0	1092	808.854084025851	0.653
0	1094	810.39729019419	1.543
0	1096	812.902187756046	2.504
0	1098	814.728978222252	1.826
0	1100	815.031005194427	0.302
0	1102	817.530642669897	2.499
0	1104	818.627077831204	1.096
0	1106	819.598329584363	0.971
0	1108	821.365620913931	1.767
0	1110	824.332207199435	2.966
0	1112	825.744292203353	1.412
0	1114	828.729142991143	2.984
0	1116	829.82680268983	1.097
0	1118	832.30525513833	2.478
0	1120	835.21689839779	2.911
0	1122	837.299356032643	2.082
0	1124	838.896510750535	1.597
0	1126	841.097520140014	2.201
0	1128	842.305904954221	1.208
0	1130	844.931711398778	2.625
0	1132	845.055449252031	0.123
0	1134	847.909979706877	2.854
0	1136	848.749701179811	0.839
0	1138	851.306489958675	2.556
0	1140	853.30615225622	1.999
0	1142	855.228968176539	1.922
0	1144	855.284556956976	0.055
0	1146	855.505052111359	0.22
0	1148	856.129176962204	0.624
0	1150	857.99933111087	1.87
0	1152	858.067480863319	0.068
0	1154	859.127122550751	1.059
0	1156	859.287593074157	0.16
0	1158	859.781928942553	0.494
0	1160	861.078328244635	1.296
0	1162	863.757826800705	2.679
0	1164	864.620184849263	0.862
0	1166	867.094856309253	2.474
0	1168	867.804017960108	0.709
0	1170	869.383933233577	1.579
0	1172	871.565018126755	2.181
0	1174	872.95536590043	1.39
0	1176	873.568033480332	0.612
0	1178	875.035937361899	1.467
0	1180	875.635625904906	0.599
0	1182	876.417785958401	0.782
0	1184	878.490366105703	2.072
0	1186	879.698279881398	1.207
0	1188	880.446988945375	0.748
0	1190	881.756998602315	1.31
0	1192	882.185984291383	0.428
0	1194	882.231152694686	0.045
0	1196	882.624990362688	0.393
0	1198	885.303707997096	2.678
0	1200	888.13768462908	2.833
0	1202	888.225132590407	0.087
0	1204	888.867861226914	0.642
0	1206	889.98653987913	1.118
0	1208	892.024804117406	2.038
0	1210	892.312424069751	0.287
0	1212	893.734102790492	1.421
0	1214	894.324995760355	0.59
0	1216	896.048334786916	1.723
0	1218	898.875596625279	2.827
0	1220	900.124536190429	1.248
0	1222	901.238349708044	1.113
0	1224	901.637838803013	0.399
0	1226	903.824841215057	2.187
0	1228	904.816811926445	0.991
0	1230	905.195292249803	0.378
0	1232	905.628553641277	0.433
0	1234	906.382402389093	0.753
0	1236	908.892632977354	2.51
0	1238	911.536338880441	2.643
0	1240	912.775388800788	1.239
0	1242	915.485277271147	2.709
0	1244	915.574622518166	0.089
0	1246	916.43752829476	0.862
0	1248	918.98881778728	2.551
0	1250	921.89015718295	2.901
0	1252	922.581794021202	0.691
0	1254	924.586092024592	2.004
0	1256	927.303859810128	2.717
0	1258	928.81288013702	1.509
0	1260	929.750043672758	0.937
0	1262	930.88405090572	1.134
0	1264	932.286060939558	1.402
0	1266	933.298165810077	1.012
0	1268	936.177283796264	2.879
0	1270	939.033315894907	2.856
0	1272	941.637071301942	2.603
0	1274	943.717072782819	2.08
0	1276	944.373433621614	0.656
0	1278	945.975738708875	1.602
0	1280	948.090080989539	2.114
0	1282	948.22055008939	0.13
0	1284	949.565790471635	1.345
0	1286	950.308443099973	0.742
0	1288	950.579847041066	0.271
0	1290	953.409359210185	2.829
0	1292	954.946891605403	1.537
0	1294	956.617472114987	1.67
0	1296	957.598087401842	0.98
0	1298	958.670642094934	1.072
0	1300	961.266528124237	2.595
0	1302	961.294879243258	0.028
0	1304	963.531495687333	2.236
0	1306	964.292140499703	0.76
0	1308	965.387938601445	1.095
0	1310	966.15061867192	0.762
0	1312	968.397513781689	2.246
0	1314	968.909570368022	0.512
0	1316	970.429885884296	1.52
0	1318	971.464825774092	1.034
0	1320	972.645038442468	1.18
0	1322	973.252985602725	0.607
0	1324	974.012726111818	0.759
0	1326	974.201430719128	0.188
0	1328	976.633750330672	2.432
0	1330	976.927631510204	0.293
0	1332	979.23713407993	2.309
0	1334	980.727316572579	1.49
0	1336	983.114462394748	2.387
0	1338	983.323444183698	0.208
0	1340	983.852335214863	0.528
0	1342	986.6577958977	2.805
0	1344	988.470218410032	1.812
0	1346	989.088511319148	0.618
0	1348	990.104817226777	1.016
0	1350	991.497454262354	1.392
0	1352	994.260586674341	2.763
0	1354	995.504591450577	1.244
0	1356	996.532309447199	1.027
0	1358	997.406322599172	0.874
0	1360	999.35265843665	1.946
0	1362	1000.323243983572	0.97
0	1364	1000.930325984738	0.607
0	1366	1001.565118723332	0.634
0	1368	1004.25433302975	2.689
0	1370	1005.095137881131	0.84
0	1372	1007.540036679261	2.444
0	1374	1007.891351772721	0.351
0	1376	1010.377017264503	2.485
0	1378	1012.444772889621	2.067
0	1380	1014.401920282764	1.957
0	1382	1016.335498839866	1.933
0	1384	1018.658511087315	2.323
0	1386	1019.593099300766	0.934
0	1388	1021.758772340387	2.165
0	1390	1024.399669196008	2.64
0	1392	1026.96836170649	2.568
0	1394	1028.127488875313	1.159
0	1396	1031.057122540444	2.929
0	1398	1032.89039044014	1.833
0	1400	1034.372115104243	1.481
0	1402	1035.941623088222	1.569
0	1404	1036.897200009802	0.955
0	1406	1037.87237042004	0.975
0	1408	1039.826851939799	1.954
0	1410	1042.616223213047	2.789
0	1412	1042.916118035808	0.299
0	1414	1045.460722264152	2.544
0	1416	1045.466370237077	0.005
0	1418	1047.989739098138	2.523
0	1420	1048.145421554352	0.155
0	1422	1051.008287461259	2.862
0	1424	1052.972711612022	1.964
0	1426	1052.980158879206	0.007
0	1428	1054.821053178532	1.84
0	1430	1056.297410468588	1.476
0	1432	1057.912487563229	1.615
0	1434	1060.726226907241	2.813
0	1436	1063.432960705849	2.706
0	1438	1063.836240980326	0.403
0	1440	1064.693831215863	0.857
0	1442	1065.428813629568	0.734
0	1444	1067.322615821164	1.893
0	1446	1068.837801589647	1.515
0	1448	1070.275342568306	1.437
0	1450	1072.310607086884	2.035
0	1452	1074.334475412749	2.023
0	1454	1075.332755274855	0.998
0	1456	1076.774924940912	1.442
0	1458	1077.694018962577	0.919
0	1460	1078.174849728372	0.48
0	1462	1080.502243479498	2.327
0	1464	1080.596149496751	0.093
0	1466	1080.694711297302	0.098
0	1468	1083.529335079965	2.834
0	1470	1085.886728661385	2.357
0	1472	1088.211497131287	2.324
0	1474	1089.497117970156	1.285
0	1476	1092.299327437783	2.802
0	1478	1094.186355825764	1.887
0	1480	1094.881388317578	0.695
0	1482	1096.997897393553	2.116
0	1484	1097.298251610965	0.3
0	1486	1097.593657483131	0.295
0	1488	1099.754307420709	2.16
0	1490	1102.465845909918	2.711
0	1492	1104.598907956638	2.133
0	1494	1107.065845363325	2.466
0	1496	1107.797680825711	0.731
0	1498	1108.92382512383	1.126
0	1500	1110.84854373128	1.924
0	1502	1111.432926716533	0.584
0	1504	1112.026926389214	0.593
0	1506	1112.215342711442	0.188
0	1508	1112.82104121942	0.605
0	1510	1113.74686799922	0.925
0	1512	1116.468046296639	2.721
0	1514	1118.607622168976	2.139
0	1516	1120.347242594714	1.739
0	1518	1122.786787737877	2.439
0	1520	1123.977205987339	1.19
0	1522	1124.956970888208	0.979
0	1524	1127.299243454839	2.342
0	1526	1127.960113119119	0.66
0	1528	1128.205751235848	0.245
0	1530	1129.187933784928	0.982
0	1532	1130.656294202218	1.468
0	1534	1133.549394708844	2.893
0	1536	1135.731911157742	2.182
0	1538	1136.020183266857	0.288
0	1540	1137.399254155829	1.379
0	1542	1137.885804488575	0.486
0	1544	1140.471733863251	2.585
0	1546	1142.554451235821	2.082
0	1548	1143.258135002125	0.703
0	1550	1143.67742549886	0.419
0	1552	1144.575989304595	0.898
0	1554	1145.375866983803	0.799
0	1556	1146.980095957425	1.604
0	1558	1149.389623565618	2.409
0	1560	1151.746846114304	2.357
0	1562	1152.648681471841	0.901
0	1564	1154.567172462837	1.918
0	1566	1156.358222094382	1.791
0	1568	1158.661924437404	2.303
0	1570	1160.380361299513	1.718
0	1572	1162.883406446099	2.503
0	1574	1163.679736862674	0.796
0	1576	1165.682901508424	2.003
0	1578	1166.429104372875	0.746
0	1580	1166.821697787863	0.392
0	1582	1167.690724255067	0.869
0	1584	1168.332547388288	0.641
0	1586	1170.960367606037	2.627
0	1588	1172.11509443565	1.154
0	1590	1172.171368874625	0.056
0	1592	1174.694556655843	2.523
0	1594	1174.969465911636	0.274
0	1596	1175.076820844101	0.107
0	1598	1176.10045071134	1.023
0	1600	1177.566420307398	1.465
0	1602	1178.227325270666	0.66
0	1604	1180.101722660024	1.874
0	1606	1181.790294864696	1.688
0	1608	1182.601667775788	0.811
0	1610	1184.220051054858	1.618
0	1612	1185.594528834816	1.374
0	1614	1187.080614831546	1.486
0	1616	1188.742393548615	1.661
0	1618	1189.644652747564	0.902
0	1620	1191.879278206747	2.234
0	1622	1193.413624382826	1.534
0	1624	1196.12379337453	2.71
0	1626	1198.482478922947	2.358
0	1628	1199.104089275484	0.621
0	1630	1201.541606026019	2.437
0	1632	1201.94721727424	0.405
0	1634	1203.545739950861	1.598
0	1636	1204.461328360967	0.915
0	1638	1206.880333995463	2.419
0	1640	1208.334051382279	1.453
0	1642	1208.436877805756	0.102
0	1644	1211.434828552667	2.997
0	1646	1211.897026915586	0.462
0	1648	1214.023743550776	2.126
0	1650	1216.268298635044	2.244
0	1652	1217.880219092377	1.611
0	1654	1219.034828800958	1.154
0	1656	1219.577133788512	0.542
0	1658	1220.530829278071	0.953
0	1660	1220.796777209983	0.265
0	1662	1222.512803664448	1.716
0	1664	1223.33002100421	0.817
0	1666	1224.447282560886	1.117
0	1668	1225.653865804448	1.206
0	1670	1228.382455536415	2.728
0	1672	1228.583751178132	0.201
0	1674	1229.744664840651	1.16
0	1676	1231.616543486965	1.871
0	1678	1234.125291085354	2.508
0	1680	1234.27749495536	0.152
0	1682	1236.082786126313	1.805
0	1684	1236.994409030787	0.911
0	1686	1239.730465362099	2.736
0	1688	1240.335394489597	0.604
0	1690	1241.787555196341	1.452
0	1692	1244.728045909218	2.94
0	1694	1247.603588108457	2.875
0	1696	1248.427128234198	0.823
0	1698	1250.157257219096	1.73
0	1700	1251.182196959871	1.024
0	1702	1251.265429859766	0.083
0	1704	1253.187372843986	1.921
0	1706	1255.403985396279	2.216
0	1708	1257.406264700014	2.002
0	1710	1259.990467084125	2.584
0	1712	1262.434478931614	2.444
0	1714	1262.730128967223	0.295
0	1716	1263.799658396068	1.069
0	1718	1266.689987498355	2.89
0	1720	1269.688696823568	2.998
0	1722	1271.378974931334	1.69
0	1724	1272.763798147227	1.384
0	1726	1274.985903872663	2.222
0	1728	1276.81986074594	1.833
0	1730	1277.49186469989	0.672
0	1732	1280.409875791772	2.918
0	1734	1283.233423285438	2.823
0	1736	1283.847049975088	0.613
0	1738	1285.777035357682	1.929
0	1740	1286.270332861943	0.493
0	1742	1287.90028879025	1.629
0	1744	1288.390556897986	0.49
0	1746	1291.274727470259	2.884
0	1748	1294.233900080452	2.959
0	1750	1295.904806271678	1.67
0	1752	1298.501481135858	2.596
0	1754	1300.096486318175	1.595
0	1756	1301.945516131835	1.849
0	1758	1302.079817011736	0.134
0	1760	1304.888474694935	2.808
0	1762	1306.527641619572	1.639
0	1764	1306.986243847774	0.458
0	1766	1309.219326521286	2.233
0	1768	1310.352495485001	1.133
0	1770	1311.457705185066	1.105
0	1772	1313.025979357089	1.568
0	1774	1315.063957412045	2.037
0	1776	1315.40646321398	0.342
0	1778	1317.09878664512	1.692
0	1780	1319.673138654342	2.574
0	1782	1320.297063709952	0.623
0	1784	1320.836141983995	0.539
0	1786	1322.476583758386	1.64
0	1788	1323.677017378405	1.2
0	1790	1325.104983611981	1.427
0	1792	1326.168166450941	1.063
0	1794	1327.181325317145	1.013
0	1796	1327.757931737479	0.576
0	1798	1329.745837357611	1.987
0	1800	1330.111951114627	0.366
0	1802	1330.295412407041	0.183
0	1804	1332.933116213669	2.637
0	1806	1334.051430478011	1.118
0	1808	1336.481231483415	2.429
0	1810	1337.783559524937	1.302
0	1812	1338.511152913811	0.727
0	1814	1341.432755776931	2.921
0	1816	1343.006993638834	1.574
0	1818	1345.10159170606	2.094
0	1820	1345.286089357937	0.184
0	1822	1347.163455202494	1.877
0	1824	1349.569542206375	2.406
0	1826	1350.037375760514	0.467
0	1828	1350.507130903674	0.469
0	1830	1351.812408182088	1.305
0	1832	1354.632895104138	2.82
0	1834	1355.74660039881	1.113
0	1836	1357.328975962025	1.582
0	1838	1360.150168615875	2.821
0	1840	1361.957802998849	1.807
0	1842	1363.316255885425	1.358
0	1844	1365.283056838687	1.966
0	1846	1367.848356800403	2.565
0	1848	1369.221038525009	1.372
0	1850	1371.181874077783	1.96
0	1852	1373.253455921558	2.071
0	1854	1375.891316786192	2.637
0	1856	1377.139700068876	1.248
0	1858	1377.149706397455	0.01
0	1860	1379.618111100297	2.468
0	1862	1382.392475803865	2.774
0	1864	1385.255040579026	2.862
0	1866	1388.108921846391	2.853
0	1868	1389.189000809116	1.08
0	1870	1389.653807373035	0.464
0	1872	1389.765070765295	0.111
0	1874	1389.962202793701	0.197
0	1876	1391.900144389147	1.937
0	1878	1392.851994453944	0.951
0	1880	1393.975974932328	1.123
0	1882	1395.732641279712	1.756
0	1884	1396.034400734367	0.301
0	1886	1397.606794773849	1.572
0	1888	1398.523319837885	0.916
0	1890	1399.828687699527	1.305
0	1892	1400.696849356188	0.868
0	1894	1403.434880817324	2.738
0	1896	1405.858780953117	2.423
0	1898	1407.568710921813	1.709
0	1900	1408.29917123729	0.73
0	1902	1411.101581484327	2.802
0	1904	1411.254741709927	0.153
0	1906	1412.983204765027	1.728
0	1908	1414.119344208171	1.136
0	1910	1414.674884787309	0.555
0	1912	1417.462932317066	2.788
0	1914	1420.409168457859	2.946
0	1916	1420.481002542903	0.071
0	1918	1423.476512330133	2.995
0	1920	1423.515424415251	0.038
0	1922	1424.854828743046	1.339
0	1924	1425.22979021004	0.374
0	1926	1427.517081891667	2.287
0	1928	1428.39656979825	0.879
0	1930	1430.306260038182	1.909
0	1932	1432.456205362003	2.149
0	1934	1433.011937294403	0.555
0	1936	1434.327512419099	1.315
0	1938	1436.065118306797	1.737
0	1940	1436.465634453824	0.4
0	1942	1438.42836025708	1.962
0	1944	1438.513885976995	0.085
0	1946	1440.29510708667	1.781
0	1948	1441.823710584097	1.528
0	1950	1443.448140496171	1.624
0	1952	1444.200492065648	0.752
0	1954	1445.976129273666	1.775
0	1956	1448.465016782299	2.488
0	1958	1450.591990308851	2.126
0	1960	1451.543892064845	0.951
0	1962	1453.856825974086	2.312
0	1964	1456.745421059677	2.888
0	1966	1457.0125716529	0.267
0	1968	1457.087687470965	0.075
0	1970	1459.828173950329	2.74
0	1972	1460.612722564736	0.784
0	1974	1461.961597573492	1.348
0	1976	1463.854114925503	1.892
0	1978	1465.943978279843	2.089
0	1980	1467.266988585019	1.323
0	1982	1468.429905731245	1.162
0	1984	1469.819617875866	1.389
0	1986	1469.972789323437	0.153
0	1988	1471.484855164555	1.512
0	1990	1473.4757789313	1.99
0	1992	1475.889934855294	2.414
0	1994	1476.986916557899	1.096
0	1996	1477.404693588861	0.417
0	1998	1479.063033468802	1.658
0	2000	1480.061352706993	0.998