version 2
run General-3-20161124-17:05:56-3475
attr configname General
attr datetime 20161124-17:05:56
attr experiment General
attr inifile omnetpp.ini
attr iterationvars ""
attr iterationvars2 $repetition=3
attr measurement ""
attr network Bar1
attr processid 3475
attr repetition 3
attr replication #3
attr resultdir results
attr runnumber 3
attr seedset 3

vector 0  Bar1.k.o  TimeBetweenReception:vector  ETV
attr source  TimeBetweenReception
attr title  "TimeBetweenReception, vector"
0	2	1.652393713128	1.652
0	4	1.864568354096	0.212
0	6	3.989011820638	2.124
0	8	6.508858947548	2.519
0	10	7.381573178339	0.872
0	12	7.745558916125	0.363
0	14	9.278041718993	1.532
0	16	10.985975696006	1.707
0	18	13.664816569536	2.678
0	20	14.976002389797	1.311
0	22	17.664881663163	2.688
0	24	17.721125693991	0.056
0	26	18.097881641937	0.376
0	28	18.219773854594	0.121
0	30	18.841502490453	0.621
0	32	19.585167395649	0.743
0	34	19.739569019526	0.154
0	36	20.02022350626	0.28
0	38	21.342653021681	1.322
0	40	23.427123993168	2.084
0	42	23.516752630936	0.089
0	44	23.952863073207	0.436
0	46	25.323362741151	1.37
0	48	26.682879639787	1.359
0	50	28.630311794577	1.947
0	52	29.277042831758	0.646
0	54	30.112504683666	0.835
0	56	31.17421990237	1.061
0	58	33.202984612666	2.028
0	60	34.680892375994	1.477
0	62	36.453480809226	1.772
0	64	39.193385167511	2.739
0	66	39.265330817083	0.071
0	68	41.562809940659	2.297
0	70	43.23937219614	1.676
0	72	46.160317009313	2.92
0	74	46.938074344534	0.777
0	76	48.145156271521	1.207
0	78	49.390459859975	1.245
0	80	51.048775705507	1.658
0	82	51.89935096423	0.85
0	84	52.818432845407	0.919
0	86	54.897846603998	2.079
0	88	56.657706520054	1.759
0	90	57.979067687876	1.321
0	92	58.803828010568	0.824
0	94	59.274431232595	0.47
0	96	60.638254527467	1.363
0	98	62.272201565326	1.633
0	100	64.545197302009	2.272
0	102	66.886141587746	2.34
0	104	69.338853769702	2.452
0	106	70.257944364566	0.919
0	108	71.030700239818	0.772
0	110	71.696573892608	0.665
0	112	74.375769211678	2.679
0	114	75.539682982955	1.163
0	116	77.694949058583	2.155
0	118	80.504100017482	2.809
0	120	80.565943523543	0.061
0	122	83.49392980733	2.927
0	124	83.922081795987	0.428
0	126	85.939232831821	2.017
0	128	86.915151363239	0.975
0	130	89.623653670773	2.708
0	132	92.05044126953	2.426
0	134	94.587693887064	2.537
0	136	95.784666755469	1.196
0	138	96.918648891616	1.133
0	140	98.192753721261	1.274
0	142	98.469404755393	0.276
0	144	99.710560806328	1.241
0	146	101.670793501194	1.96
0	148	104.032209002645	2.361
0	150	105.705731294117	1.673
0	152	107.846428537275	2.14
0	154	108.931122826645	1.084
0	156	109.000475532375	0.069
0	158	109.675639040535	0.675
0	160	110.622940785717	0.947
0	162	111.842500536935	1.219
0	164	113.530810825992	1.688
0	166	114.937631562352	1.406
0	168	117.182103872532	2.244
0	170	117.989810613217	0.807
0	172	119.818681605393	1.828
0	174	120.694059925619	0.875
0	176	121.304123512236	0.61
0	178	122.677182706771	1.373
0	180	124.63807526417	1.96
0	182	127.219676999374	2.581
0	184	129.207735797389	1.988
0	186	130.966494502498	1.758
0	188	133.579710654447	2.613
0	190	134.430174236184	0.85
0	192	136.863857505143	2.433
0	194	137.697790032717	0.833
0	196	138.820164217147	1.122
0	198	140.184030463685	1.363
0	200	140.409630804787	0.225
0	202	141.025861825094	0.616
0	204	143.307597296078	2.281
0	206	143.911733438958	0.604
0	208	144.103042844216	0.191
0	210	145.645148005568	1.542
0	212	148.168271485016	2.523
0	214	148.429959587751	0.261
0	216	150.507860829121	2.077
0	218	151.958617428782	1.45
0	220	153.296318750827	1.337
0	222	154.382847399449	1.086
0	224	155.469868775455	1.087
0	226	157.592928647527	2.123
0	228	159.141212505752	1.548
0	230	161.381451173218	2.24
0	232	162.753447698893	1.371
0	234	164.826726465251	2.073
0	236	167.251813164212	2.425
0	238	169.319354413774	2.067
0	240	170.268208014544	0.948
0	242	171.389008370925	1.12
0	244	173.920369656755	2.531
0	246	175.924774071899	2.004
0	248	177.392647838684	1.467
0	250	178.412193830356	1.019
0	252	180.032552634597	1.62
0	254	181.750934231326	1.718
0	256	184.229318455325	2.478
0	258	185.206739938117	0.977
0	260	186.771552948512	1.564
0	262	188.106988104291	1.335
0	264	188.534786143338	0.427
0	266	188.71937292977	0.184
0	268	189.626163770442	0.906
0	270	190.354190035022	0.728
0	272	192.775258059844	2.421
0	274	195.690065887987	2.914
0	276	196.648550993295	0.958
0	278	197.340303613569	0.691
0	280	197.403980834174	0.063
0	282	199.478413363217	2.074
0	284	200.925750770836	1.447
0	286	202.877181356071	1.951
0	288	202.955260155952	0.078
0	290	205.127077565758	2.171
0	292	206.643799739188	1.516
0	294	208.069065558954	1.425
0	296	210.823155626186	2.754
0	298	212.613146958637	1.789
0	300	213.23404536559	0.62
0	302	213.434953633461	0.2
0	304	216.212151986778	2.777
0	306	216.429838398935	0.217
0	308	217.261807546017	0.831
0	310	217.858735621671	0.596
0	312	218.386921967377	0.528
0	314	218.842504945348	0.455
0	316	221.813408510989	2.97
0	318	222.113721543221	0.3
0	320	224.191673392426	2.077
0	322	224.579554982014	0.387
0	324	226.83597507211	2.256
0	326	228.495808266332	1.659
0	328	228.844458037518	0.348
0	330	229.407902512463	0.563
0	332	229.66590465861	0.258
0	334	232.522208393781	2.856
0	336	234.519082216543	1.996
0	338	236.563917560966	2.044
0	340	237.552631634751	0.988
0	342	239.17569065443	1.623
0	344	240.260642507111	1.084
0	346	242.382184315237	2.121
0	348	243.960517313794	1.578
0	350	244.752177324841	0.791
0	352	246.026367177019	1.274
0	354	248.806544231014	2.78
0	356	251.265886417353	2.459
0	358	253.783465597541	2.517
0	360	255.497319832207	1.713
0	362	257.676278326656	2.178
0	364	260.319610547037	2.643
0	366	261.760330405082	1.44
0	368	264.162140937518	2.401
0	370	266.688450501296	2.526
0	372	267.738226166922	1.049
0	374	269.972483136687	2.234
0	376	272.290699187196	2.318
0	378	274.271676894738	1.98
0	380	276.96116686868	2.689
0	382	279.703092654929	2.741
0	384	282.060283657624	2.357
0	386	283.961280360813	1.9
0	388	284.811502476684	0.85
0	390	285.909324231087	1.097
0	392	288.555049574231	2.645
0	394	290.213583295462	1.658
0	396	291.849731145888	1.636
0	398	292.438872879134	0.589
0	400	294.922939230218	2.484
0	402	295.49915612116	0.576
0	404	296.200232148864	0.701
0	406	298.377241022414	2.177
0	408	298.985873966938	0.608
0	410	301.340684064891	2.354
0	412	304.215692765772	2.875
0	414	307.13198784808	2.916
0	416	309.430446116247	2.298
0	418	311.983360382722	2.552
0	420	312.548112926998	0.564
0	422	314.17889591655	1.63
0	424	315.587039853672	1.408
0	426	315.856412456597	0.269
0	428	317.364003105315	1.507
0	430	318.830622853472	1.466
0	432	319.347711551695	0.517
0	434	322.131520601681	2.783
0	436	323.0267411631	0.895
0	438	325.389595763984	2.362
0	440	326.196017750299	0.806
0	442	327.651300420512	1.455
0	444	330.311994802665	2.66
0	446	331.677832875859	1.365
0	448	333.187598746495	1.509
0	450	333.841556054299	0.653
0	452	335.558268913991	1.716
0	454	336.089909068301	0.531
0	456	337.11716782883	1.027
0	458	337.338038822861	0.22
0	460	339.166975967113	1.828
0	462	341.844155543942	2.677
0	464	342.206007646622	0.361
0	466	344.126537516007	1.92
0	468	344.243291809216	0.116
0	470	344.67328875255	0.429
0	472	347.673215144073	2.999
0	474	348.91559590771	1.242
0	476	349.719439172178	0.803
0	478	349.866765947306	0.147
0	480	350.638385081423	0.771
0	482	351.266505130093	0.628
0	484	352.096429770339	0.829
0	486	354.288554148974	2.192
0	488	355.043778680723	0.755
0	490	356.997146976871	1.953
0	492	359.690358064595	2.693
0	494	361.12729295971	1.436
0	496	363.633031891418	2.505
0	498	364.457373426288	0.824
0	500	364.896322093431	0.438
0	502	366.852991468033	1.956
0	504	369.839320992578	2.986
0	506	372.708669527659	2.869
0	508	373.775856801301	1.067
0	510	375.082418457597	1.306
0	512	376.72381072025	1.641
0	514	376.934208244078	0.21
0	516	378.40965488855	1.475
0	518	378.582849351915	0.173
0	520	378.971824503962	0.388
0	522	379.220437548116	0.248
0	524	381.800597936839	2.58
0	526	384.679719508385	2.879
0	528	385.334913213962	0.655
0	530	386.957195720162	1.622
0	532	389.430189903352	2.472
0	534	391.94257718743	2.512
0	536	394.937426561016	2.994
0	538	395.447527182048	0.51
0	540	398.421414344797	2.973
0	542	399.202449566444	0.781
0	544	399.675458832636	0.473
0	546	401.75139135983	2.075
0	548	403.163389303714	1.411
0	550	405.850100291885	2.686
0	552	407.97239481168	2.122
0	554	408.994460263049	1.022
0	556	410.014478038523	1.02
0	558	410.208497618317	0.194
0	560	412.298747581655	2.09
0	562	414.891106590621	2.592
0	564	417.136329749591	2.245
0	566	418.00894708628	0.872
0	568	420.460053169161	2.451
0	570	422.683300372206	2.223
0	572	425.226466234533	2.543
0	574	425.70056721707	0.474
0	576	425.945280344683	0.244
0	578	428.030170659992	2.084
0	580	428.953221844501	0.923
0	582	431.477480698136	2.524
0	584	433.160439499646	1.682
0	586	435.341895716024	2.181
0	588	438.101476962903	2.759
0	590	439.178799550041	1.077
0	592	439.46344355167	0.284
0	594	441.643512815229	2.18
0	596	442.861209767397	1.217
0	598	443.279611148165	0.418
0	600	444.89500222331	1.615
0	602	445.83645955938	0.941
0	604	447.78517933515	1.948
0	606	449.043927619225	1.258
0	608	449.973812523289	0.929
0	610	452.605448629	2.631
0	612	455.129509944227	2.524
0	614	455.590730563729	0.461
0	616	457.080725427476	1.489
0	618	459.721099794369	2.64
0	620	461.83231889479	2.111
0	622	464.229211842168	2.396
0	624	466.265860965934	2.036
0	626	469.180733851616	2.914
0	628	471.050944692681	1.87
0	630	472.154053641243	1.103
0	632	475.147490840864	2.993
0	634	475.762310148908	0.614
0	636	476.241251623949	0.478
0	638	476.962962568032	0.721
0	640	479.421588819001	2.458
0	642	481.905177231871	2.483
0	644	482.812672106309	0.907
0	646	485.708356552517	2.895
0	648	486.026121726951	0.317
0	650	488.122551733854	2.096
0	652	488.981464118923	0.858
0	654	490.428955234581	1.447
0	656	492.569768866751	2.14
0	658	493.430918161053	0.861
0	660	494.146227054292	0.715
0	662	496.647290707094	2.501
0	664	498.740287700196	2.092
0	666	501.356826242984	2.616
0	668	501.433409861515	0.076
0	670	501.709804632927	0.276
0	672	504.495301172363	2.785
0	674	505.143149578704	0.647
0	676	506.232378417619	1.089
0	678	508.727661687175	2.495
0	680	511.127833668601	2.4
0	682	513.672745356329	2.544
0	684	515.83141275448	2.158
0	686	516.775371737305	0.943
0	688	518.582843330448	1.807
0	690	519.420727133976	0.837
0	692	520.115110225968	0.694
0	694	521.407555282108	1.292
0	696	522.738318318959	1.33
0	698	524.35665782354	1.618
0	700	526.285882760064	1.929
0	702	526.572583205757	0.286
0	704	528.919735142953	2.347
0	706	531.430471544844	2.51
0	708	533.81175835942	2.381
0	710	535.415962971738	1.604
0	712	536.558749585404	1.142
0	714	538.88365303957	2.324
0	716	540.107404034344	1.223
0	718	540.799912837792	0.692
0	720	541.116890451398	0.316
0	722	544.012770507477	2.895
0	724	545.329778609324	1.317
0	726	547.582860531743	2.253
0	728	550.14555246289	2.562
0	730	551.174834038588	1.029
0	732	554.083121547234	2.908
0	734	556.928704491575	2.845
0	736	559.089158192734	2.16
0	738	561.190693535833	2.101
0	740	562.420967539996	1.23
0	742	564.942650814997	2.521
0	744	565.360180354901	0.417
0	746	565.496672276864	0.136
0	748	565.562959719906	0.066
0	750	565.729884357648	0.166
0	752	566.397013316387	0.667
0	754	568.62522513465	2.228
0	756	569.695462200083	1.07
0	758	570.609521484226	0.914
0	760	572.95779407559	2.348
0	762	574.508147177743	1.55
0	764	575.856350757638	1.348
0	766	576.325138038248	0.468
0	768	577.755933331084	1.43
0	770	580.68979056947	2.933
0	772	582.238647826007	1.548
0	774	583.746900969176	1.508
0	776	584.852341764598	1.105
0	778	587.339344996252	2.487
0	780	588.126627040087	0.787
0	782	588.348740425651	0.222
0	784	590.757224336025	2.408
0	786	592.193970673942	1.436
0	788	594.896283089175	2.702
0	790	595.083121525814	0.186
0	792	596.166372850995	1.083
0	794	598.819097136372	2.652
0	796	601.471291142042	2.652
0	798	602.808721677625	1.337
0	800	603.72710356651	0.918
0	802	603.932753333814	0.205
0	804	604.783821683136	0.851
0	806	605.013310525325	0.229
0	808	605.651993532191	0.638
0	810	607.26837151846	1.616
0	812	608.529171005814	1.26
0	814	608.755870216517	0.226
0	816	609.133333335854	0.377
0	818	609.684650283763	0.551
0	820	612.663420954943	2.978
0	822	613.972492215215	1.309
0	824	615.273095089235	1.3
0	826	616.766443586667	1.493
0	828	618.616559447014	1.85
0	830	620.366495174348	1.749
0	832	623.303726939011	2.937
0	834	625.165264985051	1.861
0	836	626.045328526517	0.88
0	838	627.163763036245	1.118
0	840	628.526698378838	1.362
0	842	630.382908129358	1.856
0	844	631.577318863004	1.194
0	846	632.049052822629	0.471
0	848	634.414820231257	2.365
0	850	635.241345653536	0.826
0	852	637.093708199907	1.852
0	854	639.489863015238	2.396
0	856	641.264441030092	1.774
0	858	641.723708937169	0.459
0	860	642.097574187434	0.373
0	862	642.767543120767	0.669
0	864	642.860330709946	0.092
0	866	643.589265259905	0.728
0	868	644.285560428156	0.696
0	870	645.724082361898	1.438
0	872	645.762348835813	0.038
0	874	645.764585396499	0.002
0	876	646.588497805168	0.823
0	878	646.679431878255	0.09
0	880	649.505174968849	2.825
0	882	650.889819430179	1.384
0	884	651.720123179016	0.83
0	886	652.207685253575	0.487
0	888	652.435049867948	0.227
0	890	654.473555291296	2.038
0	892	655.296611788907	0.823
0	894	657.682225544463	2.385
0	896	660.640304596388	2.958
0	898	662.374794684109	1.734
0	900	663.642667936851	1.267
0	902	665.72696285694	2.084
0	904	667.917441471937	2.19
0	906	669.09031552285	1.172
0	908	670.935883891294	1.845
0	910	671.074772508107	0.138
0	912	671.616993495021	0.542
0	914	672.935258077681	1.318
0	916	675.166746311346	2.231
0	918	676.282687240504	1.115
0	920	677.379132256834	1.096
0	922	679.170141980043	1.791
0	924	681.500428082878	2.33
0	926	681.903082588911	0.402
0	928	684.28305062348	2.379
0	930	684.966189317629	0.683
0	932	686.869099726659	1.902
0	934	689.313446967621	2.444
0	936	691.595370398593	2.281
0	938	692.388346976126	0.792
0	940	694.302505620513	1.914
0	942	695.533466241546	1.23
0	944	697.498867974374	1.965
0	946	700.306784512233	2.807
0	948	700.308220958794	0.001
0	950	701.134878342962	0.826
0	952	702.729267734094	1.594
0	954	703.165137609458	0.435
0	956	703.700754111391	0.535
0	958	705.806814487782	2.106
0	960	708.114215562111	2.307
0	962	709.815415213574	1.701
0	964	709.890491061136	0.075
0	966	711.725272570494	1.834
0	968	711.922882222095	0.197
0	970	712.048974783848	0.126
0	972	713.02776680001	0.978
0	974	714.279567490089	1.251
0	976	716.031357767982	1.751
0	978	716.044157089889	0.012
0	980	716.345890228162	0.301
0	982	717.085496630511	0.739
0	984	718.59126666071	1.505
0	986	720.70943520683	2.118
0	988	723.112423908656	2.402
0	990	723.297046066021	0.184
0	992	723.508155344046	0.211
0	994	724.392235822502	0.884
0	996	726.908946045201	2.516
0	998	729.8732842924	2.964
0	1000	731.944112795863	2.07
0	1002	734.857779504724	2.913
0	1004	735.230252256144	0.372
0	1006	736.675791421432	1.445
0	1008	738.276576226337	1.6
0	1010	740.4836563887	2.207
0	1012	743.016997327788	2.533
0	1014	744.914964636548	1.897
0	1016	746.766998515225	1.852
0	1018	748.164077722694	1.397
0	1020	751.147637802868	2.983
0	1022	753.718837096815	2.571
0	1024	754.721386011683	1.002
0	1026	755.238940756295	0.517
0	1028	757.771767652121	2.532
0	1030	760.257063427235	2.485
0	1032	761.475894982454	1.218
0	1034	761.602103542762	0.126
0	1036	764.17195801832	2.569
0	1038	766.772819089929	2.6
0	1040	769.16179713676	2.388
0	1042	771.189786903786	2.027
0	1044	771.507011400762	0.317
0	1046	772.844753731967	1.337
0	1048	774.990890940645	2.146
0	1050	777.005601686652	2.014
0	1052	779.495211796363	2.489
0	1054	780.876317302224	1.381
0	1056	782.780636959237	1.904
0	1058	785.120646626449	2.34
0	1060	786.141644051525	1.02
0	1062	786.481976309319	0.34
0	1064	787.055826182936	0.573
0	1066	788.580298477078	1.524
0	1068	790.279442903346	1.699
0	1070	792.893911539337	2.614
0	1072	792.975007163586	0.081
0	1074	795.757594992632	2.782
0	1076	795.916520053746	0.158
0	1078	796.57752904691	0.661
0	1080	799.026336793082	2.448
0	1082	799.782127696315	0.755
0	1084	802.251828369212	2.469
0	1086	804.963865790509	2.712
0	1088	805.032934712937	0.069
0	1090	806.069486728396	1.036
0	1092	806.630339714458	0.56
0	1094	806.800957431311	0.17
0	1096	808.823948556783	2.022
0	1098	810.968608559102	2.144
0	1100	813.693682619829	2.725
0	1102	814.936939201543	1.243
0	1104	817.084686300011	2.147
0	1106	819.290658849051	2.205
0	1108	821.657791618017	2.367
0	1110	823.089066535227	1.431
0	1112	823.354800103458	0.265
0	1114	824.856496757122	1.501
0	1116	826.151051430723	1.294
0	1118	827.403737154782	1.252
0	1120	830.146878471358	2.743
0	1122	831.018333145177	0.871
0	1124	833.310795874327	2.292
0	1126	836.012928493546	2.702
0	1128	836.629847149124	0.616
0	1130	838.636209887677	2.006
0	1132	839.331561656661	0.695
0	1134	841.698058681322	2.366
0	1136	844.387285640921	2.689
0	1138	847.074504223179	2.687
0	1140	849.303814931998	2.229
0	1142	850.054381751914	0.75
0	1144	851.309050173957	1.254
0	1146	854.068512002464	2.759
0	1148	856.993342782596	2.924
0	1150	859.581158036591	2.587
0	1152	862.500414319561	2.919
0	1154	864.018670112352	1.518
0	1156	864.188770525382	0.17
0	1158	865.892477044129	1.703
0	1160	867.512093477176	1.619
0	1162	867.856890174087	0.344
0	1164	870.446645001175	2.589
0	1166	872.732992529862	2.286
0	1168	874.510414414101	1.777
0	1170	875.030089432367	0.519
0	1172	877.721280255814	2.691
0	1174	879.322788371465	1.601
0	1176	880.967772422119	1.644
0	1178	881.347084321075	0.379
0	1180	883.873808003257	2.526
0	1182	884.092559271951	0.218
0	1184	885.991440871724	1.898
0	1186	887.818523197196	1.827
0	1188	890.1920954436	2.373
0	1190	891.665704837761	1.473
0	1192	891.796223118429	0.13
0	1194	893.820652927033	2.024
0	1196	894.638253275765	0.817
0	1198	897.010815820651	2.372
0	1200	898.897342275822	1.886
0	1202	901.84540475299	2.948
0	1204	903.636118589429	1.79
0	1206	903.888360619772	0.252
0	1208	906.836774931516	2.948
0	1210	908.730411266203	1.893
0	1212	910.581158424255	1.85
0	1214	912.312083109508	1.73
0	1216	914.02548998873	1.713
0	1218	915.977416504633	1.951
0	1220	918.107286642298	2.129
0	1222	919.736825000953	1.629
0	1224	920.701219109112	0.964
0	1226	922.373321275685	1.672
0	1228	923.620118907645	1.246
0	1230	926.225782803485	2.605
0	1232	927.939079052063	1.713
0	1234	929.295113916735	1.356
0	1236	929.832115264137	0.537
0	1238	931.437042002559	1.604
0	1240	933.534799399779	2.097
0	1242	935.607690510799	2.072
0	1244	936.957207286258	1.349
0	1246	937.22569227218	0.268
0	1248	938.46298547135	1.237
0	1250	939.758761423168	1.295
0	1252	942.65895206923	2.9
0	1254	942.965354747599	0.306
0	1256	943.127375705861	0.162
0	1258	943.540805384512	0.413
0	1260	945.708131992021	2.167
0	1262	945.714508674336	0.006
0	1264	947.598585129944	1.884
0	1266	948.227704448854	0.629
0	1268	949.453473981233	1.225
0	1270	950.103385786522	0.649
0	1272	950.597184430804	0.493
0	1274	952.14591787336	1.548
0	1276	953.237394568972	1.091
0	1278	954.948019300351	1.71
0	1280	955.719147091495	0.771
0	1282	958.19103061943	2.471
0	1284	960.013061822156	1.822
0	1286	961.473195372845	1.46
0	1288	964.341264841377	2.868
0	1290	967.015628624006	2.674
0	1292	969.662931050869	2.647
0	1294	970.848113420183	1.185
0	1296	972.724638601063	1.876
0	1298	974.958472935014	2.233
0	1300	976.969871256264	2.011
0	1302	978.628143023463	1.658
0	1304	981.319625560889	2.691
0	1306	983.191100811349	1.871
0	1308	985.236401037076	2.045
0	1310	986.047577037006	0.811
0	1312	987.520760970651	1.473
0	1314	990.333545992379	2.812
0	1316	992.583007333563	2.249
0	1318	994.891971486849	2.308
0	1320	995.611442764052	0.719
0	1322	996.048227855232	0.436
0	1324	996.077798328124	0.029
0	1326	997.690101457056	1.612
0	1328	997.939317879495	0.249
0	1330	1000.926676805825	2.987
0	1332	1002.442230212265	1.515
0	1334	1002.589399199463	0.147
0	1336	1004.067953164918	1.478
0	1338	1004.976412667889	0.908
0	1340	1006.892303697295	1.915
0	1342	1009.11474381317	2.222
0	1344	1010.839467974376	1.724
0	1346	1010.957552319156	0.118
0	1348	1011.181727043815	0.224
0	1350	1013.421740326794	2.24
0	1352	1014.610526853703	1.188
0	1354	1016.330790694799	1.72
0	1356	1017.489607575346	1.158
0	1358	1019.68472460494	2.195
0	1360	1020.700661712322	1.015
0	1362	1022.353159509129	1.652
0	1364	1023.933871189128	1.58
0	1366	1026.752081627488	2.818
0	1368	1028.350718133148	1.598
0	1370	1029.389923230509	1.039
0	1372	1031.005739205979	1.615
0	1374	1032.729147583708	1.723
0	1376	1034.883230241477	2.154
0	1378	1035.035570186093	0.152
0	1380	1036.264289876675	1.228
0	1382	1037.924588381774	1.66
0	1384	1039.726984127653	1.802
0	1386	1040.985162974564	1.258
0	1388	1041.092137432187	0.106
0	1390	1044.041622796091	2.949
0	1392	1045.282479764656	1.24
0	1394	1048.119301718189	2.836
0	1396	1050.862740929699	2.743
0	1398	1051.277579174605	0.414
0	1400	1053.951850196109	2.674
0	1402	1054.07669711485	0.124
0	1404	1056.643341719634	2.566
0	1406	1057.005366928871	0.362
0	1408	1057.990075987526	0.984
0	1410	1058.568316909014	0.578
0	1412	1058.827047761758	0.258
0	1414	1061.005551752397	2.178
0	1416	1062.033589549358	1.028
0	1418	1063.665523415427	1.631
0	1420	1063.683694542614	0.018
0	1422	1065.288470552764	1.604
0	1424	1065.441366815469	0.152
0	1426	1066.834977747868	1.393
0	1428	1069.701310868138	2.866
0	1430	1069.721393526062	0.02
0	1432	1072.067102428522	2.345
0	1434	1073.244518171061	1.177
0	1436	1074.863770404827	1.619
0	1438	1077.860585723069	2.996
0	1440	1080.853798308639	2.993
0	1442	1083.314671910597	2.46
0	1444	1085.980990543492	2.666
0	1446	1087.699572674461	1.718
0	1448	1087.947948751036	0.248
0	1450	1088.537337649144	0.589
0	1452	1089.199358609734	0.662
0	1454	1091.960766868429	2.761
0	1456	1094.514105851525	2.553
0	1458	1095.786547594932	1.272
0	1460	1098.438790523675	2.652
0	1462	1100.296772334254	1.857
0	1464	1101.740263560316	1.443
0	1466	1102.349586536637	0.609
0	1468	1103.031199850835	0.681
0	1470	1104.015397078352	0.984
0	1472	1106.318645649584	2.303
0	1474	1107.35350604541	1.034
0	1476	1107.535947019927	0.182
0	1478	1108.720202642021	1.184
0	1480	1109.227507560275	0.507
0	1482	1109.29420322575	0.066
0	1484	1110.202781887952	0.908
0	1486	1112.183823056979	1.981
0	1488	1112.295233919047	0.111
0	1490	1112.80520397168	0.509
0	1492	1115.800245207729	2.995
0	1494	1117.610145995854	1.809
0	1496	1119.517118060723	1.906
0	1498	1121.375859095011	1.858
0	1500	1122.651922454121	1.276
0	1502	1124.745636696456	2.093
0	1504	1126.025332483225	1.279
0	1506	1126.901126030362	0.875
0	1508	1128.471579634114	1.57
0	1510	1129.347675585649	0.876
0	1512	1131.567654796406	2.219
0	1514	1133.834243221204	2.266
0	1516	1136.315024682083	2.48
0	1518	1137.479697275436	1.164
0	1520	1138.81037011323	1.33
0	1522	1139.267759895646	0.457
0	1524	1140.735551870423	1.467
0	1526	1143.451346573415	2.715
0	1528	1144.315270553571	0.863
0	1530	1144.354518983508	0.039
0	1532	1144.43743180646	0.082
0	1534	1147.096885039698	2.659
0	1536	1147.405839775683	0.308
0	1538	1148.282610114192	0.876
0	1540	1149.665292170824	1.382
0	1542	1150.810767290409	1.145
0	1544	1151.942815711716	1.132
0	1546	1154.878031158581	2.935
0	1548	1156.732308251777	1.854
0	1550	1158.042335461819	1.31
0	1552	1160.708777542686	2.666
0	1554	1162.856423465297	2.147
0	1556	1164.965056289681	2.108
0	1558	1166.202204608354	1.237
0	1560	1166.334193377984	0.131
0	1562	1169.074800813799	2.74
0	1564	1169.542799106562	0.467
0	1566	1171.70127062243	2.158
0	1568	1172.066062538648	0.364
0	1570	1173.508137892229	1.442
0	1572	1175.644301189338	2.136
0	1574	1175.896966141877	0.252
0	1576	1177.022152489047	1.125
0	1578	1178.113054086916	1.09
0	1580	1179.804519335503	1.691
0	1582	1181.276339430126	1.471
0	1584	1184.068203967527	2.791
0	1586	1184.919796508501	0.851
0	1588	1187.210056307955	2.29
0	1590	1188.813977825685	1.603
0	1592	1190.227181231134	1.413
0	1594	1190.856134452155	0.628
0	1596	1190.988480114142	0.132
0	1598	1192.471468829314	1.482
0	1600	1194.008739605077	1.537
0	1602	1195.592755194517	1.584
0	1604	1197.59130655252	1.998
0	1606	1199.611385484222	2.02
0	1608	1199.877728523682	0.266
0	1610	1202.113826053213	2.236
0	1612	1202.880941990293	0.767
0	1614	1205.070863233176	2.189
0	1616	1205.533854597476	0.462
0	1618	1206.806202298025	1.272
0	1620	1208.442412993865	1.636
0	1622	1209.810269982548	1.367
0	1624	1212.682683478569	2.872
0	1626	1215.303204784629	2.62
0	1628	1216.956627707456	1.653
0	1630	1218.044991473195	1.088
0	1632	1220.184805226738	2.139
0	1634	1222.398903710295	2.214
0	1636	1224.680529400699	2.281
0	1638	1227.662731106153	2.982
0	1640	1228.612779482959	0.95
0	1642	1231.387204641003	2.774
0	1644	1231.608255626626	0.221
0	1646	1233.255966220975	1.647
0	1648	1234.842774437733	1.586
0	1650	1235.758108596077	0.915
0	1652	1236.15783659694	0.399
0	1654	1238.024774517158	1.866
0	1656	1238.293551902279	0.268
0	1658	1240.3464569149	2.052
0	1660	1240.876267232692	0.529
0	1662	1242.457154004362	1.58
0	1664	1244.247019420371	1.789
0	1666	1245.271449319313	1.024
0	1668	1246.934061586617	1.662
0	1670	1248.300341299495	1.366
0	1672	1250.328351773314	2.028
0	1674	1250.573723991627	0.245
0	1676	1252.67051216284	2.096
0	1678	1253.544358777573	0.873
0	1680	1255.829717491047	2.285
0	1682	1256.264407765112	0.434
0	1684	1257.010477561263	0.746
0	1686	1259.00991974584	1.999
0	1688	1260.349837404435	1.339
0	1690	1263.227539843639	2.877
0	1692	1263.519454773275	0.291
0	1694	1263.991158818586	0.471
0	1696	1266.762758984689	2.771
0	1698	1266.847641199354	0.084
0	1700	1266.967023658559	0.119
0	1702	1269.191095158916	2.224
0	1704	1271.857256131006	2.666
0	1706	1272.919749612912	1.062
0	1708	1273.384449429104	0.464
0	1710	1274.902348261086	1.517
0	1712	1275.185782528475	0.283
0	1714	1275.368926733492	0.183
0	1716	1278.216637808124	2.847
0	1718	1278.74993266118	0.533
0	1720	1279.557624973117	0.807
0	1722	1281.644143844016	2.086
0	1724	1282.586146627545	0.942
0	1726	1284.401778500752	1.815
0	1728	1285.381259230656	0.979
0	1730	1287.941492897683	2.56
0	1732	1288.90979500603	0.968
0	1734	1291.798564625895	2.888
0	1736	1294.677260525283	2.878
0	1738	1295.756105813655	1.078
0	1740	1297.42530607245	1.669
0	1742	1299.286051603258	1.86
0	1744	1300.364279813124	1.078
0	1746	1301.70731204724	1.343
0	1748	1302.13986037205	0.432
0	1750	1303.656651259624	1.516
0	1752	1305.50837473128	1.851
0	1754	1306.682880006721	1.174
0	1756	1308.320626358725	1.637
0	1758	1311.252809037445	2.932
0	1760	1312.756891665505	1.504
0	1762	1314.627805099347	1.87
0	1764	1317.490249194661	2.862
0	1766	1317.915905475141	0.425
0	1768	1320.059026613822	2.143
0	1770	1322.152211951781	2.093
0	1772	1322.664044272611	0.511
0	1774	1325.561313031232	2.897
0	1776	1327.545010429565	1.983
0	1778	1330.229558588462	2.684
0	1780	1331.96584693877	1.736
0	1782	1333.639859194392	1.674
0	1784	1334.492911844737	0.853
0	1786	1334.537056198101	0.044
0	1788	1337.065301808286	2.528
0	1790	1339.481940815215	2.416
0	1792	1340.827901538917	1.345
0	1794	1343.623485543755	2.795
0	1796	1346.221451245471	2.597
0	1798	1348.423238197564	2.201
0	1800	1349.872185234436	1.448
0	1802	1351.159044625228	1.286
0	1804	1351.649808728592	0.49
0	1806	1352.792332064583	1.142
0	1808	1353.682118324553	0.889
0	1810	1355.9159326048	2.233
0	1812	1357.823205106416	1.907
0	1814	1358.146758395004	0.323
0	1816	1358.812044121548	0.665
0	1818	1361.166131654744	2.354
0	1820	1363.54335054242	2.377
0	1822	1365.039766206629	1.496
0	1824	1365.416288161175	0.376
0	1826	1365.626645199014	0.21
0	1828	1367.521115069967	1.894
0	1830	1369.99025071458	2.469
0	1832	1372.035126262801	2.044
0	1834	1373.210248700567	1.175
0	1836	1375.149788110974	1.939
0	1838	1375.470082923528	0.32
0	1840	1375.761254870091	0.291
0	1842	1376.282650209023	0.521
0	1844	1377.217298218273	0.934
0	1846	1379.795596080358	2.578
0	1848	1379.976678650119	0.181
0	1850	1380.494904042679	0.518
0	1852	1383.072000256266	2.577
0	1854	1385.424751654027	2.352
0	1856	1387.418933609726	1.994
0	1858	1389.831281923216	2.412
0	1860	1389.929467518807	0.098
0	1862	1390.189021940336	0.259
0	1864	1393.003737213781	2.814
0	1866	1394.309896948041	1.306
0	1868	1395.202671257305	0.892
0	1870	1397.564148165277	2.361
0	1872	1400.521853461853	2.957
0	1874	1401.992036104194	1.47
0	1876	1402.163761511204	0.171
0	1878	1404.761808968607	2.598
0	1880	1406.567451226052	1.805
0	1882	1407.706614987685	1.139
0	1884	1409.061909941251	1.355
0	1886	1410.946853197406	1.884
0	1888	1413.238274567288	2.291
0	1890	1413.878835352364	0.64
0	1892	1416.424956003896	2.546
0	1894	1418.9517251593	2.526
0	1896	1419.759502509836	0.807
0	1898	1422.277574348258	2.518
0	1900	1425.160167003511	2.882
0	1902	1426.857670003077	1.697
0	1904	1429.283806130983	2.426
0	1906	1430.253071479959	0.969
0	1908	1430.997362521704	0.744
0	1910	1432.040067089483	1.042
0	1912	1434.768571710208	2.728
0	1914	1436.552619943622	1.784
0	1916	1438.103979176603	1.551
0	1918	1438.489206406748	0.385
0	1920	1440.050936043257	1.561
0	1922	1441.58235454908	1.531
0	1924	1443.786579620786	2.204
0	1926	1444.672858416097	0.886
0	1928	1447.31985290022	2.646
0	1930	1448.344587970287	1.024
0	1932	1450.279039135198	1.934
0	1934	1451.244556297543	0.965
0	1936	1451.551986598637	0.307
0	1938	1454.055598150235	2.503
0	1940	1456.204441988603	2.148
0	1942	1456.7309438365	0.526
0	1944	1458.098734812108	1.367
0	1946	1458.808077516961	0.709
0	1948	1459.99877651338	1.19
0	1950	1460.492201293348	0.493
0	1952	1461.463703570417	0.971
0	1954	1461.50900588091	0.045
0	1956	1462.933876417107	1.424
0	1958	1464.210690598465	1.276
0	1960	1466.811715294603	2.601
0	1962	1469.343557767333	2.531
0	1964	1472.169095458691	2.825
0	1966	1474.87734322459	2.708
0	1968	1475.72457904019	0.847
0	1970	1477.186676018867	1.462
0	1972	1479.721116438736	2.534
0	1974	1480.985245511397	1.264
0	1976	1482.462737818011	1.477
0	1978	1485.067239509891	2.604
0	1980	1485.874169862825	0.806
0	1982	1487.459654190108	1.585
0	1984	1488.223049660209	0.763
0	1986	1489.86905117123	1.646
0	1988	1491.801655620565	1.932
0	1990	1493.749591376162	1.947
0	1992	1494.965658265394	1.216
0	1994	1495.204496450019	0.238
0	1996	1497.705553006143	2.501
