version 2
run General-4-20161124-17:05:57-3501
attr configname General
attr datetime 20161124-17:05:57
attr experiment General
attr inifile omnetpp.ini
attr iterationvars ""
attr iterationvars2 $repetition=4
attr measurement ""
attr network Bar1
attr processid 3501
attr repetition 4
attr replication #4
attr resultdir results
attr runnumber 4
attr seedset 4

vector 0  Bar1.k.o  TimeBetweenReception:vector  ETV
attr source  TimeBetweenReception
attr title  "TimeBetweenReception, vector"
0	2	2.901089515071	2.901
0	4	5.602953879162	2.701
0	6	7.244650638894	1.641
0	8	7.762736613861	0.518
0	10	10.68078967533	2.918
0	12	13.247652509947	2.566
0	14	15.392100493422	2.144
0	16	17.219207287764	1.827
0	18	19.312393760772	2.093
0	20	21.10506237787	1.792
0	22	21.75333087961	0.648
0	24	22.177723398197	0.424
0	26	25.106546762397	2.928
0	28	25.780064542543	0.673
0	30	25.798755313501	0.018
0	32	27.89401603164	2.095
0	34	28.652963114668	0.758
0	36	31.362498693632	2.709
0	38	32.666873282285	1.304
0	40	34.565762580836	1.898
0	42	36.903911358675	2.338
0	44	36.919388808308	0.015
0	46	37.512444023507	0.593
0	48	39.229513498953	1.717
0	50	41.818493204656	2.588
0	52	42.9029822289	1.084
0	54	45.853184249018	2.95
0	56	47.665580060099	1.812
0	58	48.157106791622	0.491
0	60	49.332405377877	1.175
0	62	51.124407206195	1.792
0	64	53.560250456676	2.435
0	66	53.587208740179	0.026
0	68	55.424784769768	1.837
0	70	56.584498615934	1.159
0	72	57.383919965474	0.799
0	74	57.516400126273	0.132
0	76	59.448142915962	1.931
0	78	62.318101815644	2.869
0	80	64.751288129247	2.433
0	82	66.059728075049	1.308
0	84	66.116802298461	0.057
0	86	68.963734219314	2.846
0	88	69.083075305445	0.119
0	90	71.441993258193	2.358
0	92	74.277004792586	2.835
0	94	76.875872683942	2.598
0	96	78.214920285621	1.339
0	98	78.734416547229	0.519
0	100	80.058462147366	1.324
0	102	80.283307907635	0.224
0	104	80.480436523908	0.197
0	106	82.282664705065	1.802
0	108	82.810248410094	0.527
0	110	83.314164961453	0.503
0	112	85.911813226526	2.597
0	114	88.111953722776	2.2
0	116	90.642538078825	2.53
0	118	91.86786964908	1.225
0	120	94.643329126292	2.775
0	122	96.227055598746	1.583
0	124	98.837975024708	2.61
0	126	101.650689779545	2.812
0	128	104.156459901712	2.505
0	130	105.721548275088	1.565
0	132	106.504464511757	0.782
0	134	106.829044671494	0.324
0	136	106.936319236176	0.107
0	138	107.410989458904	0.474
0	140	108.097277469466	0.686
0	142	109.732885431031	1.635
0	144	110.366427097934	0.633
0	146	111.939639350165	1.573
0	148	112.481801132903	0.542
0	150	114.39463187917	1.912
0	152	115.342980535932	0.948
0	154	116.547466863411	1.204
0	156	117.270582678726	0.723
0	158	119.219998018349	1.949
0	160	120.346103319664	1.126
0	162	121.536803330293	1.19
0	164	123.434795265084	1.897
0	166	125.306543613316	1.871
0	168	125.975641175171	0.669
0	170	128.277856078229	2.302
0	172	128.694109691304	0.416
0	174	129.231031415515	0.536
0	176	130.962022321994	1.73
0	178	132.088749626183	1.126
0	180	133.143770760854	1.055
0	182	134.651369944445	1.507
0	184	136.054621003566	1.403
0	186	138.114622248567	2.06
0	188	139.190921368308	1.076
0	190	139.951960327102	0.761
0	192	140.20146761136	0.249
0	194	141.865690205012	1.664
0	196	142.624419032362	0.758
0	198	144.499211582354	1.874
0	200	144.641428067581	0.142
0	202	147.327931552659	2.686
0	204	150.116151517024	2.788
0	206	151.204712282633	1.088
0	208	151.913136249873	0.708
0	210	153.825807454297	1.912
0	212	156.258522264892	2.432
0	214	156.832861487288	0.574
0	216	157.211406469345	0.378
0	218	158.704788831761	1.493
0	220	158.931907957652	0.227
0	222	159.479244160931	0.547
0	224	161.536008771043	2.056
0	226	164.291157888248	2.755
0	228	167.13237996865	2.841
0	230	168.427846190985	1.295
0	232	169.374866654863	0.947
0	234	171.86543094716	2.49
0	236	174.494247174589	2.628
0	238	175.744576094672	1.25
0	240	177.839072909206	2.094
0	242	180.553075679345	2.714
0	244	181.622194948839	1.069
0	246	182.836670586839	1.214
0	248	185.550398863619	2.713
0	250	186.543922379147	0.993
0	252	187.673180791083	1.129
0	254	189.38959710393	1.716
0	256	191.929763919207	2.54
0	258	194.466094868955	2.536
0	260	196.666418303734	2.2
0	262	199.249461226164	2.583
0	264	201.346404304028	2.096
0	266	203.133468655635	1.787
0	268	205.141998278208	2.008
0	270	205.395983115069	0.253
0	272	205.635920834958	0.239
0	274	207.427720655918	1.791
0	276	207.561664141247	0.133
0	278	208.298025272552	0.736
0	280	208.5836195047	0.285
0	282	210.781399860977	2.197
0	284	211.433690727687	0.652
0	286	214.117644607554	2.683
0	288	216.538694246671	2.421
0	290	218.082896169041	1.544
0	292	218.384037449955	0.301
0	294	220.194727980298	1.81
0	296	220.38748211204	0.192
0	298	220.582685535773	0.195
0	300	223.414537555072	2.831
0	302	225.034761762013	1.62
0	304	225.52337692771	0.488
0	306	225.910937274572	0.387
0	308	227.686558211919	1.775
0	310	229.530246736713	1.843
0	312	232.381310716503	2.851
0	314	233.472261765505	1.09
0	316	234.572570772142	1.1
0	318	236.875844895606	2.303
0	320	236.940700982696	0.064
0	322	237.08630340197	0.145
0	324	238.648326606256	1.562
0	326	238.977780964225	0.329
0	328	239.898818979039	0.921
0	330	241.950888624647	2.052
0	332	244.450334278168	2.499
0	334	245.994295362616	1.543
0	336	248.782401163364	2.788
0	338	250.497325291392	1.714
0	340	250.884131292813	0.386
0	342	253.415252256906	2.531
0	344	255.908658555011	2.493
0	346	257.37187146186	1.463
0	348	259.732130899794	2.36
0	350	262.162564167521	2.43
0	352	264.231496496593	2.068
0	354	265.762227391593	1.53
0	356	267.713550719201	1.951
0	358	270.493712780067	2.78
0	360	273.305587220473	2.811
0	362	275.306370530512	2
0	364	276.014825528955	0.708
0	366	276.461006051863	0.446
0	368	277.905385881897	1.444
0	370	278.99904539413	1.093
0	372	281.781271225542	2.782
0	374	284.378595980585	2.597
0	376	284.91081992537	0.532
0	378	285.961675567787	1.05
0	380	286.420760323994	0.459
0	382	286.987837585623	0.567
0	384	289.890876473629	2.903
0	386	291.308740409327	1.417
0	388	292.270587350012	0.961
0	390	293.448930865157	1.178
0	392	296.106322143929	2.657
0	394	297.963111913767	1.856
0	396	299.59924265603	1.636
0	398	300.909541524951	1.31
0	400	302.022860073722	1.113
0	402	302.805626546736	0.782
0	404	303.216404001233	0.41
0	406	304.453820639993	1.237
0	408	304.791351646888	0.337
0	410	306.048453768487	1.257
0	412	306.265303535391	0.216
0	414	308.972569111972	2.707
0	416	309.552286345749	0.579
0	418	312.491135135298	2.938
0	420	312.499914921825	0.008
0	422	314.37062143791	1.87
0	424	317.001000008085	2.63
0	426	317.25055235974	0.249
0	428	320.061955876187	2.811
0	430	322.260952024026	2.198
0	432	323.768896242375	1.507
0	434	325.804952449868	2.036
0	436	328.047436890429	2.242
0	438	330.525505500849	2.478
0	440	331.990018778251	1.464
0	442	333.03237279109	1.042
0	444	333.044135482519	0.011
0	446	333.220775756056	0.176
0	448	334.607763842915	1.386
0	450	336.443229300205	1.835
0	452	336.879616282417	0.436
0	454	337.251660145822	0.372
0	456	338.178043839525	0.926
0	458	340.456632427642	2.278
0	460	342.716268674241	2.259
0	462	345.099538621263	2.383
0	464	347.365616801198	2.266
0	466	348.591497149322	1.225
0	468	351.34403257538	2.752
0	470	354.175425091064	2.831
0	472	356.970492154597	2.795
0	474	357.491831539436	0.521
0	476	357.762256706836	0.27
0	478	360.590014273305	2.827
0	480	361.17592840386	0.585
0	482	362.572397433924	1.396
0	484	364.256802826193	1.684
0	486	366.545783770741	2.288
0	488	366.577063786569	0.031
0	490	368.835524386731	2.258
0	492	369.525215086765	0.689
0	494	372.468844860797	2.943
0	496	372.579429531242	0.11
0	498	375.499263523617	2.919
0	500	375.752410770864	0.253
0	502	375.872684135572	0.12
0	504	377.859591441001	1.986
0	506	377.907505268934	0.047
0	508	379.658135863724	1.75
0	510	381.288006805121	1.629
0	512	383.468595876596	2.18
0	514	383.570228728238	0.101
0	516	386.283358593709	2.713
0	518	388.255812505032	1.972
0	520	388.305965489247	0.05
0	522	389.91067329166	1.604
0	524	392.60074885679	2.69
0	526	394.60042405129	1.999
0	528	396.112127000704	1.511
0	530	397.436149111954	1.324
0	532	399.280607458675	1.844
0	534	400.098021842312	0.817
0	536	400.502258780418	0.404
0	538	403.351265611365	2.849
0	540	404.767169800126	1.415
0	542	406.951978107919	2.184
0	544	408.855686590779	1.903
0	546	408.874658411141	0.018
0	548	410.350021323893	1.475
0	550	410.648004606139	0.297
0	552	413.442247408681	2.794
0	554	415.337324137805	1.895
0	556	418.145005640114	2.807
0	558	419.009116125997	0.864
0	560	420.509000488562	1.499
0	562	421.731865517567	1.222
0	564	422.960771984891	1.228
0	566	425.305365353827	2.344
0	568	427.737876700707	2.432
0	570	428.800313307209	1.062
0	572	430.347628341759	1.547
0	574	433.125054128938	2.777
0	576	434.594121541599	1.469
0	578	436.75547790388	2.161
0	580	439.366654328074	2.611
0	582	441.022433635782	1.655
0	584	443.716708968862	2.694
0	586	444.259603482208	0.542
0	588	444.677148880672	0.417
0	590	445.905923048036	1.228
0	592	448.094586814057	2.188
0	594	450.38323218492	2.288
0	596	452.079265266891	1.696
0	598	455.051655717894	2.972
0	600	457.724618936192	2.672
0	602	457.945576064057	0.22
0	604	458.894405581524	0.948
0	606	459.298663398951	0.404
0	608	461.560229748489	2.261
0	610	463.780363953907	2.22
0	612	464.618059775095	0.837
0	614	467.119403893362	2.501
0	616	467.478133957136	0.358
0	618	467.744452538902	0.266
0	620	468.425395597007	0.68
0	622	470.913649442142	2.488
0	624	473.235564321747	2.321
0	626	475.595761250939	2.36
0	628	477.958737200826	2.362
0	630	480.023401012878	2.064
0	632	481.975576266647	1.952
0	634	482.99535552878	1.019
0	636	483.917605366326	0.922
0	638	485.25122734951	1.333
0	640	488.243439313259	2.992
0	642	489.342447727222	1.099
0	644	490.226345402656	0.883
0	646	492.747743599351	2.521
0	648	494.752080354375	2.004
0	650	495.737046780066	0.984
0	652	496.529828307919	0.792
0	654	497.497553248193	0.967
0	656	498.764651086882	1.267
0	658	501.570523654346	2.805
0	660	504.20175736584	2.631
0	662	506.961719417248	2.759
0	664	508.751993080137	1.79
0	666	511.658015470255	2.906
0	668	512.499552971918	0.841
0	670	514.922199818307	2.422
0	672	517.16992586176	2.247
0	674	517.430672699819	0.26
0	676	519.613858714002	2.183
0	678	519.886590353447	0.272
0	680	521.955946235453	2.069
0	682	523.627192454647	1.671
0	684	524.982054531809	1.354
0	686	527.550605837258	2.568
0	688	529.003818237458	1.453
0	690	531.656411825915	2.652
0	692	532.872052518421	1.215
0	694	534.782598522728	1.91
0	696	537.638509784363	2.855
0	698	540.505923572233	2.867
0	700	540.555374426771	0.049
0	702	541.011031234641	0.455
0	704	541.95113111311	0.94
0	706	542.61587388581	0.664
0	708	545.586224646078	2.97
0	710	546.583710138456	0.997
0	712	549.235837299147	2.652
0	714	550.006252066235	0.77
0	716	550.066079145533	0.059
0	718	551.002694247759	0.936
0	720	551.311079969167	0.308
0	722	551.666416527939	0.355
0	724	551.948658455632	0.282
0	726	553.074678890876	1.126
0	728	553.872070869201	0.797
0	730	553.961392863424	0.089
0	732	554.546235926453	0.584
0	734	556.159580935029	1.613
0	736	557.341989934448	1.182
0	738	560.179474821783	2.837
0	740	562.547832346757	2.368
0	742	563.883207945622	1.335
0	744	564.147539642643	0.264
0	746	566.019999370681	1.872
0	748	567.153534418907	1.133
0	750	568.988971476912	1.835
0	752	570.163975650914	1.175
0	754	572.964113156781	2.8
0	756	573.871215209136	0.907
0	758	576.074772375174	2.203
0	760	577.477369789736	1.402
0	762	579.951832562688	2.474
0	764	582.923823704015	2.971
0	766	583.931371928196	1.007
0	768	586.173117257425	2.241
0	770	588.895511204613	2.722
0	772	589.147212352141	0.251
0	774	589.702840056273	0.555
0	776	591.548926100836	1.846
0	778	592.772872908044	1.223
0	780	593.358566382205	0.585
0	782	595.570922312796	2.212
0	784	596.713425107537	1.142
0	786	597.713794247018	1
0	788	600.556105646541	2.842
0	790	603.214508337438	2.658
0	792	603.920642548244	0.706
0	794	606.502610143743	2.581
0	796	607.719887785617	1.217
0	798	608.215242129987	0.495
0	800	611.130352093609	2.915
0	802	611.8225899227	0.692
0	804	611.954357447106	0.131
0	806	612.111662084473	0.157
0	808	612.967395865362	0.855
0	810	615.543558414563	2.576
0	812	616.354950636861	0.811
0	814	617.372625352585	1.017
0	816	618.761174626884	1.388
0	818	619.940914808775	1.179
0	820	621.215291577394	1.274
0	822	622.026388022586	0.811
0	824	624.293335889935	2.266
0	826	624.66301956517	0.369
0	828	625.417514963544	0.754
0	830	626.788332673025	1.37
0	832	629.378374040362	2.59
0	834	630.082525187174	0.704
0	836	631.84542840603	1.762
0	838	633.534888096388	1.689
0	840	635.659322718625	2.124
0	842	636.267617872451	0.608
0	844	636.343822976808	0.076
0	846	637.877984834836	1.534
0	848	638.287050402259	0.409
0	850	641.132028046065	2.844
0	852	642.771245543613	1.639
0	854	643.886746677105	1.115
0	856	644.67227334017	0.785
0	858	647.534930621507	2.862
0	860	648.088314735331	0.553
0	862	648.259932496352	0.171
0	864	648.583906075917	0.323
0	866	650.230321443407	1.646
0	868	650.502098526573	0.271
0	870	652.301490995335	1.799
0	872	653.884034211282	1.582
0	874	656.769294166239	2.885
0	876	657.38222828717	0.612
0	878	660.157783675008	2.775
0	880	661.036365956069	0.878
0	882	662.569084324642	1.532
0	884	665.344645663631	2.775
0	886	667.623104087078	2.278
0	888	668.164524739842	0.541
0	890	671.092240588508	2.927
0	892	673.013923346765	1.921
0	894	675.223424155965	2.209
0	896	675.525074848441	0.301
0	898	678.386942771032	2.861
0	900	679.695455785376	1.308
0	902	682.512137707557	2.816
0	904	684.723470334198	2.211
0	906	686.168771807572	1.445
0	908	688.653095972726	2.484
0	910	690.63277867553	1.979
0	912	691.79992966843	1.167
0	914	692.339478575859	0.539
0	916	692.675101524919	0.335
0	918	693.98617194663	1.311
0	920	695.636997621508	1.65
0	922	698.235370178708	2.598
0	924	700.611371915556	2.376
0	926	702.343068115182	1.731
0	928	705.337123592619	2.994
0	930	706.175484392794	0.838
0	932	708.683108005209	2.507
0	934	709.05147575238	0.368
0	936	710.638692900541	1.587
0	938	711.334258505146	0.695
0	940	712.57338163513	1.239
0	942	712.948359341363	0.374
0	944	713.136060058607	0.187
0	946	713.837401348401	0.701
0	948	714.425474528691	0.588
0	950	715.57621455705	1.15
0	952	716.937702273021	1.361
0	954	717.06639785995	0.128
0	956	718.115591153039	1.049
0	958	720.631723254921	2.516
0	960	721.182283217788	0.55
0	962	722.393713998145	1.211
0	964	725.001991751373	2.608
0	966	726.704098653749	1.702
0	968	727.761322392619	1.057
0	970	729.669724435315	1.908
0	972	730.165209760193	0.495
0	974	730.563735780075	0.398
0	976	731.436255339768	0.872
0	978	731.684378172506	0.248
0	980	733.921860864621	2.237
0	982	734.391457482942	0.469
0	984	737.246463259452	2.855
0	986	740.205137432788	2.958
0	988	742.193502229641	1.988
0	990	742.50704795332	0.313
0	992	743.468141911322	0.961
0	994	744.736109668625	1.267
0	996	746.250689226439	1.514
0	998	748.875876267211	2.625
0	1000	749.147899958541	0.272
0	1002	750.900726908123	1.752
0	1004	752.797598526118	1.896
0	1006	752.850199529672	0.052
0	1008	754.455260029299	1.605
0	1010	757.121367777701	2.666
0	1012	758.004697023894	0.883
0	1014	759.157140014696	1.152
0	1016	760.876990827036	1.719
0	1018	761.380181458781	0.503
0	1020	762.585278724323	1.205
0	1022	763.596818218709	1.011
0	1024	765.991100348535	2.394
0	1026	767.773544753672	1.782
0	1028	768.84040972777	1.066
0	1030	768.953645272183	0.113
0	1032	769.875859934374	0.922
0	1034	771.805785514883	1.929
0	1036	772.207401848168	0.401
0	1038	774.037721038333	1.83
0	1040	776.70475251647	2.667
0	1042	777.391134273729	0.686
0	1044	778.611401752338	1.22
0	1046	779.889455014376	1.278
0	1048	782.484738382746	2.595
0	1050	783.065283275677	0.58
0	1052	785.255929269597	2.19
0	1054	785.319918791533	0.063
0	1056	787.109428622064	1.789
0	1058	788.861188234065	1.751
0	1060	791.306687402774	2.445
0	1062	792.642758534758	1.336
0	1064	794.63852885552	1.995
0	1066	797.164698816606	2.526
0	1068	797.607185545148	0.442
0	1070	798.204352499455	0.597
0	1072	800.066060250396	1.861
0	1074	801.387857396625	1.321
0	1076	801.594765699007	0.206
0	1078	803.597129286271	2.002
0	1080	806.294802409601	2.697
0	1082	806.499806291195	0.205
0	1084	808.853638498349	2.353
0	1086	809.9196483905	1.066
0	1088	809.931266303411	0.011
0	1090	811.989375192676	2.058
0	1092	814.790003079692	2.8
0	1094	815.525218773637	0.735
0	1096	816.178967181364	0.653
0	1098	817.270899144936	1.091
0	1100	818.065646314298	0.794
0	1102	819.797737402844	1.732
0	1104	822.441942188426	2.644
0	1106	823.670248952231	1.228
0	1108	826.543528208744	2.873
0	1110	829.173872728834	2.63
0	1112	829.896959222157	0.723
0	1114	832.476603053047	2.579
0	1116	833.949411534008	1.472
0	1118	836.451342208779	2.501
0	1120	838.673262546074	2.221
0	1122	839.952076035554	1.278
0	1124	841.467077270152	1.515
0	1126	842.037467272256	0.57
0	1128	842.136645674941	0.099
0	1130	844.053235000701	1.916
0	1132	844.674124073007	0.62
0	1134	845.9585890146	1.284
0	1136	848.481751925315	2.523
0	1138	849.999173122228	1.517
0	1140	852.537751820407	2.538
0	1142	854.490906474416	1.953
0	1144	857.415846347113	2.924
0	1146	860.2356709654	2.819
0	1148	860.890167978362	0.654
0	1150	863.314917146464	2.424
0	1152	866.211202939044	2.896
0	1154	866.580852837305	0.369
0	1156	868.280292940096	1.699
0	1158	871.002679559405	2.722
0	1160	873.824126682946	2.821
0	1162	875.855328684443	2.031
0	1164	876.152926569575	0.297
0	1166	877.11120214267	0.958
0	1168	879.99601169606	2.884
0	1170	882.185990672794	2.189
0	1172	883.323826816401	1.137
0	1174	884.748718577672	1.424
0	1176	885.088789293545	0.34
0	1178	886.771886986683	1.683
0	1180	886.919861312725	0.147
0	1182	888.635335393485	1.715
0	1184	889.220668874683	0.585
0	1186	889.675136621578	0.454
0	1188	892.225332027769	2.55
0	1190	893.311278377895	1.085
0	1192	894.788226160456	1.476
0	1194	896.095430375545	1.307
0	1196	899.036742987812	2.941
0	1198	899.209918289448	0.173
0	1200	901.18702487089	1.977
0	1202	903.358222397047	2.171
0	1204	904.175555946308	0.817
0	1206	905.155970244904	0.98
0	1208	907.092315286866	1.936
0	1210	908.522873888726	1.43
0	1212	909.249310827816	0.726
0	1214	912.093484248968	2.844
0	1216	914.022302446656	1.928
0	1218	916.626207451105	2.603
0	1220	916.960920164596	0.334
0	1222	917.780208704762	0.819
0	1224	918.841764904793	1.061
0	1226	920.042580001291	1.2
0	1228	921.635360603456	1.592
0	1230	923.349063215081	1.713
0	1232	923.353130829057	0.004
0	1234	923.711576578675	0.358
0	1236	925.3299211578	1.618
0	1238	927.718474300115	2.388
0	1240	928.793172928274	1.074
0	1242	929.764428801138	0.971
0	1244	931.317853116432	1.553
0	1246	931.664739078145	0.346
0	1248	932.305878254354	0.641
0	1250	934.427477785854	2.121
0	1252	937.15394524229	2.726
0	1254	938.698669939071	1.544
0	1256	941.231356829872	2.532
0	1258	941.312658037061	0.081
0	1260	942.047055860518	0.734
0	1262	943.735406699127	1.688
0	1264	946.467675585768	2.732
0	1266	948.760302103593	2.292
0	1268	951.218088258759	2.457
0	1270	951.311216257981	0.093
0	1272	952.421928145227	1.11
0	1274	954.394691011406	1.972
0	1276	955.630440015349	1.235
0	1278	956.380865735704	0.75
0	1280	959.352152731506	2.971
0	1282	960.657981662782	1.305
0	1284	961.070565201579	0.412
0	1286	961.287067461064	0.216
0	1288	961.758347863335	0.471
0	1290	963.355033436328	1.596
0	1292	963.722383278193	0.367
0	1294	966.538870009597	2.816
0	1296	966.840302322063	0.301
0	1298	967.754749448042	0.914
0	1300	969.990647072674	2.235
0	1302	970.18125919509	0.19
0	1304	972.155489338564	1.974
0	1306	974.700168331389	2.544
0	1308	976.153832889164	1.453
0	1310	978.996613587953	2.842
0	1312	980.190157113133	1.193
0	1314	981.663369355958	1.473
0	1316	982.958637990991	1.295
0	1318	985.684166433292	2.725
0	1320	988.288900166985	2.604
0	1322	991.014821406223	2.725
0	1324	993.246729874287	2.231
0	1326	995.450287411923	2.203
0	1328	996.984776619591	1.534
0	1330	999.478758604966	2.493
0	1332	1001.715463296512	2.236
0	1334	1002.201475996526	0.486
0	1336	1002.804422906602	0.602
0	1338	1005.341040189846	2.536
0	1340	1008.320013812047	2.978
0	1342	1009.566940787949	1.246
0	1344	1010.794184001398	1.227
0	1346	1011.65424510604	0.86
0	1348	1013.668988452761	2.014
0	1350	1015.35457526101	1.685
0	1352	1016.219828413336	0.865
0	1354	1018.792308121223	2.572
0	1356	1021.052475401901	2.26
0	1358	1022.35198135162	1.299
0	1360	1024.017102154207	1.665
0	1362	1024.250408470633	0.233
0	1364	1025.271506956315	1.021
0	1366	1026.133341810668	0.861
0	1368	1026.366955422333	0.233
0	1370	1027.222888230814	0.855
0	1372	1027.395632247908	0.172
0	1374	1029.486786564814	2.091
0	1376	1030.361629532885	0.874
0	1378	1033.226827345325	2.865
0	1380	1033.960873135135	0.734
0	1382	1035.611315417571	1.65
0	1384	1037.999053834707	2.387
0	1386	1038.75989141199	0.76
0	1388	1038.762234095253	0.002
0	1390	1040.871623729357	2.109
0	1392	1043.839980913328	2.968
0	1394	1044.283161938658	0.443
0	1396	1046.896012085725	2.612
0	1398	1047.080899357798	0.184
0	1400	1049.977487287254	2.896
0	1402	1051.92451049248	1.947
0	1404	1053.485895524502	1.561
0	1406	1054.613152476961	1.127
0	1408	1056.865952772323	2.252
0	1410	1058.218375974802	1.352
0	1412	1058.604504460005	0.386
0	1414	1058.826451792383	0.221
0	1416	1061.581001696411	2.754
0	1418	1063.020065161867	1.439
0	1420	1063.894696428908	0.874
0	1422	1065.713129086422	1.818
0	1424	1066.056129716106	0.343
0	1426	1069.003665325001	2.947
0	1428	1070.951560972493	1.947
0	1430	1071.015970626848	0.064
0	1432	1073.275167260088	2.259
0	1434	1074.825407548111	1.55
0	1436	1076.624004206855	1.798
0	1438	1078.08430554718	1.46
0	1440	1078.214147004534	0.129
0	1442	1080.089570576327	1.875
0	1444	1082.617396071555	2.527
0	1446	1085.176916364582	2.559
0	1448	1087.527638023022	2.35
0	1450	1089.021736750381	1.494
0	1452	1090.612738186728	1.591
0	1454	1092.330481683139	1.717
0	1456	1093.492356351812	1.161
0	1458	1095.000019911912	1.507
0	1460	1096.718919081383	1.718
0	1462	1099.108245193029	2.389
0	1464	1099.950014643606	0.841
0	1466	1102.670819995927	2.72
0	1468	1104.023503017847	1.352
0	1470	1104.991486064161	0.967
0	1472	1105.50033955579	0.508
0	1474	1107.673530570234	2.173
0	1476	1108.59436621168	0.92
0	1478	1110.558634049728	1.964
0	1480	1112.930147073468	2.371
0	1482	1114.050010557988	1.119
0	1484	1116.21383293276	2.163
0	1486	1118.624320936625	2.41
0	1488	1120.097643671095	1.473
0	1490	1122.182804705113	2.085
0	1492	1123.365071124168	1.182
0	1494	1124.840690919202	1.475
0	1496	1126.953486308459	2.112
0	1498	1128.669253818694	1.715
0	1500	1131.438593799717	2.769
0	1502	1134.285412089902	2.846
0	1504	1135.687667170077	1.402
0	1506	1137.608177448859	1.92
0	1508	1138.845578087963	1.237
0	1510	1140.750251466878	1.904
0	1512	1141.568929015896	0.818
0	1514	1142.710848680935	1.141
0	1516	1144.035227242396	1.324
0	1518	1146.380940707405	2.345
0	1520	1149.308151398324	2.927
0	1522	1151.925303346947	2.617
0	1524	1152.836645284439	0.911
0	1526	1153.765118211512	0.928
0	1528	1156.408229919388	2.643
0	1530	1157.387465242534	0.979
0	1532	1158.331216178141	0.943
0	1534	1160.350805605301	2.019
0	1536	1160.468775359686	0.117
0	1538	1161.335340135969	0.866
0	1540	1163.340652881894	2.005
0	1542	1163.58579494502	0.245
0	1544	1166.144235584657	2.558
0	1546	1167.008532784418	0.864
0	1548	1169.504386971243	2.495
0	1550	1171.595622645695	2.091
0	1552	1172.246079949433	0.65
0	1554	1173.754076403104	1.507
0	1556	1175.245249775009	1.491
0	1558	1176.985440263062	1.74
0	1560	1177.956603303555	0.971
0	1562	1179.835315914595	1.878
0	1564	1180.000546922445	0.165
0	1566	1181.605859731327	1.605
0	1568	1183.651677349585	2.045
0	1570	1186.53558874992	2.883
0	1572	1188.210115346362	1.674
0	1574	1190.642105556096	2.431
0	1576	1193.332703660944	2.69
0	1578	1196.222850162772	2.89
0	1580	1198.76548670512	2.542
0	1582	1200.845520179023	2.08
0	1584	1201.641705075282	0.796
0	1586	1204.046847344379	2.405
0	1588	1205.869367615788	1.822
0	1590	1208.123517966832	2.254
0	1592	1210.628055860524	2.504
0	1594	1213.451348403937	2.823
0	1596	1213.893564447996	0.442
0	1598	1214.914922320752	1.021
0	1600	1217.276066238063	2.361
0	1602	1218.249331000962	0.973
0	1604	1219.793802401519	1.544
0	1606	1219.829566377218	0.035
0	1608	1221.524137692995	1.694
0	1610	1221.727562189338	0.203
0	1612	1222.084996878172	0.357
0	1614	1224.970020656942	2.885
0	1616	1225.030205399732	0.06
0	1618	1226.454986615575	1.424
0	1620	1228.303352580409	1.848
0	1622	1228.66826550267	0.364
0	1624	1228.96237303899	0.294
0	1626	1229.286025708312	0.323
0	1628	1231.265600456394	1.979
0	1630	1232.818400821419	1.552
0	1632	1234.539746442813	1.721
0	1634	1236.494250606982	1.954
0	1636	1237.204477788418	0.71
0	1638	1239.706829812381	2.502
0	1640	1241.423811410557	1.716
0	1642	1243.138147363675	1.714
0	1644	1245.883932656611	2.745
0	1646	1246.885640330149	1.001
0	1648	1247.072458411336	0.186
0	1650	1249.174880108565	2.102
0	1652	1249.821260796862	0.646
0	1654	1250.384338947015	0.563
0	1656	1251.07943753293	0.695
0	1658	1252.077812344536	0.998
0	1660	1254.746779861396	2.668
0	1662	1255.109573649244	0.362
0	1664	1255.282409056324	0.172
0	1666	1257.324476161275	2.042
0	1668	1259.290979360698	1.966
0	1670	1260.909934316298	1.618
0	1672	1263.430651356934	2.52
0	1674	1264.74907391961	1.318
0	1676	1266.706248343692	1.957
0	1678	1267.397046877074	0.69
0	1680	1269.820260736861	2.423
0	1682	1272.351336333903	2.531
0	1684	1273.214618613014	0.863
0	1686	1274.404012779009	1.189
0	1688	1276.98016939033	2.576
0	1690	1279.717068557629	2.736
0	1692	1280.022365103477	0.305
0	1694	1280.837745347993	0.815
0	1696	1283.821220330197	2.983
0	1698	1285.732976663161	1.911
0	1700	1288.163512696514	2.43
0	1702	1290.375957723942	2.212
0	1704	1290.422936207617	0.046
0	1706	1290.930756899996	0.507
0	1708	1291.701263166035	0.77
0	1710	1292.2474881853	0.546
0	1712	1294.831458182542	2.583
0	1714	1297.125427617461	2.293
0	1716	1297.779287179702	0.653
0	1718	1298.047534145418	0.268
0	1720	1298.603332984963	0.555
0	1722	1300.038384576099	1.435
0	1724	1300.176906692101	0.138
0	1726	1300.42537727673	0.248
0	1728	1300.715928544061	0.29
0	1730	1303.607176869413	2.891
0	1732	1305.059440885907	1.452
0	1734	1307.565038630743	2.505
0	1736	1307.699830724396	0.134
0	1738	1308.396953630032	0.697
0	1740	1311.079030774537	2.682
0	1742	1313.609286610972	2.53
0	1744	1314.795441425642	1.186
0	1746	1317.038007062398	2.242
0	1748	1317.77991467575	0.741
0	1750	1318.105254611703	0.325
0	1752	1320.572193438424	2.466
0	1754	1321.372900330233	0.8
0	1756	1323.998432614612	2.625
0	1758	1325.923967365878	1.925
0	1760	1327.927170292478	2.003
0	1762	1330.0486101592	2.121
0	1764	1332.638151179305	2.589
0	1766	1333.669012001254	1.03
0	1768	1333.769292581598	0.1
0	1770	1334.156243934999	0.386
0	1772	1334.471008337107	0.314
0	1774	1335.955617491393	1.484
0	1776	1336.641788829355	0.686
0	1778	1338.933764975056	2.291
0	1780	1341.24472565507	2.31
0	1782	1342.808086662092	1.563
0	1784	1343.170219915458	0.362
0	1786	1343.753416641387	0.583
0	1788	1344.795038876361	1.041
0	1790	1345.708063462055	0.913
0	1792	1347.851566725415	2.143
0	1794	1350.123695892752	2.272
0	1796	1352.094726042128	1.971
0	1798	1353.476827454292	1.382
0	1800	1355.803305158396	2.326
0	1802	1358.099035347583	2.295
0	1804	1358.247061813953	0.148
0	1806	1358.77510226076	0.528
0	1808	1361.727828079606	2.952
0	1810	1363.782614619243	2.054
0	1812	1366.544435109017	2.761
0	1814	1368.943179748026	2.398
0	1816	1369.697243897482	0.754
0	1818	1372.359630933735	2.662
0	1820	1372.548401086829	0.188
0	1822	1373.443382073897	0.894
0	1824	1375.211721203527	1.768
0	1826	1377.948187232487	2.736
0	1828	1379.871272574416	1.923
0	1830	1381.628322702604	1.757
0	1832	1383.776848806771	2.148
0	1834	1384.659349992177	0.882
0	1836	1384.921339738653	0.261
0	1838	1385.014210449769	0.092
0	1840	1387.329304769407	2.315
0	1842	1389.323317667008	1.994
0	1844	1391.645489202584	2.322
0	1846	1394.49369368982	2.848
0	1848	1397.383219181331	2.889
0	1850	1399.106719230538	1.723
0	1852	1400.249028547903	1.142
0	1854	1401.14987235633	0.9
0	1856	1401.875751613875	0.725
0	1858	1402.865038014486	0.989
0	1860	1403.049178070625	0.184
0	1862	1404.521193806551	1.472
0	1864	1405.170522470962	0.649
0	1866	1408.122419603172	2.951
0	1868	1410.521178827391	2.398
0	1870	1411.812818353998	1.291
0	1872	1413.632883810441	1.82
0	1874	1414.794501443163	1.161
0	1876	1417.71348398505	2.918
0	1878	1419.197090730772	1.483
0	1880	1420.451000402684	1.253
0	1882	1421.116147534459	0.665
0	1884	1423.846329537456	2.73
0	1886	1424.718565510822	0.872
0	1888	1425.61875103461	0.9
0	1890	1428.048997832233	2.43
0	1892	1429.202138992263	1.153
0	1894	1431.880766369639	2.678
0	1896	1433.745514875282	1.864
0	1898	1434.856187264905	1.11
0	1900	1436.184782955334	1.328
0	1902	1437.631076500988	1.446
0	1904	1439.744565572361	2.113
0	1906	1442.455088684107	2.71
0	1908	1442.662193427565	0.207
0	1910	1444.802445719488	2.14
0	1912	1447.717161851008	2.914
0	1914	1449.090439473749	1.373
0	1916	1449.670438242382	0.579
0	1918	1452.544794618156	2.874
0	1920	1453.211546795679	0.666
0	1922	1455.867920505818	2.656
0	1924	1457.925057847988	2.057
0	1926	1459.312667796625	1.387
0	1928	1461.07588203438	1.763
0	1930	1461.656138960043	0.58
0	1932	1462.520507390615	0.864
0	1934	1465.028678077277	2.508
0	1936	1466.150766150331	1.122
0	1938	1468.84363691253	2.692
0	1940	1470.372940007601	1.529
0	1942	1472.388809242988	2.015
0	1944	1473.564743472965	1.175
0	1946	1475.980909030189	2.416
0	1948	1476.323148423809	0.342
0	1950	1476.380205059893	0.057
0	1952	1479.169962909309	2.789
0	1954	1481.031833380231	1.861
0	1956	1482.428573529239	1.396
0	1958	1484.849635123744	2.421
0	1960	1486.673890468668	1.824
0	1962	1487.531460779723	0.857
0	1964	1490.390814475719	2.859
0	1966	1490.856929389065	0.466
0	1968	1493.6517626897	2.794
0	1970	1496.323136192051	2.671
0	1972	1499.271720129068	2.948
