version 2
run General-0-20161124-17:05:56-3474
attr configname General
attr datetime 20161124-17:05:56
attr experiment General
attr inifile omnetpp.ini
attr iterationvars ""
attr iterationvars2 $repetition=0
attr measurement ""
attr network Bar1
attr processid 3474
attr repetition 0
attr replication #0
attr resultdir results
attr runnumber 0
attr seedset 0

vector 0  Bar1.k.o  TimeBetweenReception:vector  ETV
attr source  TimeBetweenReception
attr title  "TimeBetweenReception, vector"
0	2	1.646440506913	1.646
0	4	3.42497435608	1.778
0	6	5.570542450995	2.145
0	8	8.103339683265	2.532
0	10	9.911629794399	1.808
0	12	12.485466653947	2.573
0	14	14.120116186096	1.634
0	16	16.661871397868	2.541
0	18	17.932835788233	1.27
0	20	19.803526877425	1.87
0	22	21.741209222702	1.937
0	24	22.894354347372	1.153
0	26	24.207115977304	1.312
0	28	25.09971979307	0.892
0	30	27.77503879834	2.675
0	32	27.945177725517	0.17
0	34	30.83616601769	2.89
0	36	31.654134901242	0.817
0	38	32.804459465203	1.15
0	40	34.237454800169	1.432
0	42	36.612629900455	2.375
0	44	39.049136079849	2.436
0	46	40.635820844445	1.586
0	48	42.075752358652	1.439
0	50	43.779886049918	1.704
0	52	44.958240429406	1.178
0	54	47.735030329089	2.776
0	56	50.243266635576	2.508
0	58	50.456374811709	0.213
0	60	51.468563296601	1.012
0	62	51.729951187504	0.261
0	64	53.674466817176	1.944
0	66	53.735122014537	0.06
0	68	54.839846626624	1.104
0	70	57.337706155145	2.497
0	72	60.209171618103	2.871
0	74	62.54364188877	2.334
0	76	62.964694221039	0.421
0	78	65.574730656809	2.61
0	80	68.18499241001	2.61
0	82	71.120847438695	2.935
0	84	72.541671558749	1.42
0	86	74.939147250261	2.397
0	88	77.341879507759	2.402
0	90	78.726317596156	1.384
0	92	80.28775003762	1.561
0	94	82.629337564577	2.341
0	96	84.665976165562	2.036
0	98	85.02079943684	0.354
0	100	87.182697391604	2.161
0	102	89.102460442577	1.919
0	104	90.848519816297	1.746
0	106	91.278579672799	0.43
0	108	92.890699357493	1.612
0	110	95.724706113339	2.834
0	112	98.000552974642	2.275
0	114	99.566097959178	1.565
0	116	99.883820778458	0.317
0	118	101.127806601814	1.243
0	120	102.548607870006	1.42
0	122	103.342274704251	0.793
0	124	103.901271737881	0.558
0	126	106.223972797396	2.322
0	128	108.43472733116	2.21
0	130	109.803178339035	1.368
0	132	110.45282940916	0.649
0	134	112.158131254141	1.705
0	136	112.563785773937	0.405
0	138	112.620155168001	0.056
0	140	113.592578180369	0.972
0	142	115.445484682919	1.852
0	144	115.894509274281	0.449
0	146	117.73079644167	1.836
0	148	118.397760598223	0.666
0	150	120.248562594178	1.85
0	152	121.408029528336	1.159
0	154	124.239273754183	2.831
0	156	126.947069168325	2.707
0	158	128.992530061865	2.045
0	160	130.342380030548	1.349
0	162	131.420903736727	1.078
0	164	133.260094122264	1.839
0	166	134.571189980257	1.311
0	168	137.278235714884	2.707
0	170	139.371129301145	2.092
0	172	139.668970355765	0.297
0	174	139.849646755262	0.18
0	176	142.759073961061	2.909
0	178	144.759374094895	2
0	180	146.71879419149	1.959
0	182	148.73070781259	2.011
0	184	149.243436570979	0.512
0	186	149.874584255974	0.631
0	188	150.949040766574	1.074
0	190	151.335819661619	0.386
0	192	153.587878078224	2.252
0	194	154.534163127189	0.946
0	196	156.357655127301	1.823
0	198	157.448787447532	1.091
0	200	158.423929130194	0.975
0	202	160.134519458051	1.71
0	204	160.249795734651	0.115
0	206	161.565600274831	1.315
0	208	163.468422434295	1.902
0	210	166.433543929832	2.965
0	212	169.310391737616	2.876
0	214	169.616526158063	0.306
0	216	171.574897114888	1.958
0	218	172.201527390631	0.626
0	220	174.106704021806	1.905
0	222	174.59063255531	0.483
0	224	177.576531252127	2.985
0	226	179.535856218312	1.959
0	228	181.281407214936	1.745
0	230	182.041282018881	0.759
0	232	183.284387782916	1.243
0	234	184.683320101352	1.398
0	236	186.107412616724	1.424
0	238	186.840689380888	0.733
0	240	188.711219698891	1.87
0	242	189.188128458338	0.476
0	244	190.202151310865	1.014
0	246	190.533276728356	0.331
0	248	192.557533695131	2.024
0	250	194.526522471105	1.968
0	252	195.4781277054	0.951
0	254	195.892676553923	0.414
0	256	198.227712999099	2.335
0	258	198.817460069201	0.589
0	260	201.666173223407	2.848
0	262	202.772348720581	1.106
0	264	204.759929324734	1.987
0	266	207.222909017467	2.462
0	268	207.263623943088	0.04
0	270	207.554927756545	0.291
0	272	209.42346603633	1.868
0	274	211.937300756342	2.513
0	276	213.958279649495	2.02
0	278	214.246574852849	0.288
0	280	217.162409849698	2.915
0	282	220.091788245365	2.929
0	284	222.726368651027	2.634
0	286	224.132322245976	1.405
0	288	225.661195361288	1.528
0	290	228.591478633694	2.93
0	292	228.758622712455	0.167
0	294	230.573159266495	1.814
0	296	231.926636908202	1.353
0	298	234.144427652237	2.217
0	300	234.204390669241	0.059
0	302	234.321954036131	0.117
0	304	235.647086800541	1.325
0	306	236.495507678948	0.848
0	308	239.434267870383	2.938
0	310	239.794857564149	0.36
0	312	240.873190971091	1.078
0	314	241.761611568974	0.888
0	316	243.204292177688	1.442
0	318	243.560475320555	0.356
0	320	245.626458879327	2.065
0	322	246.580408399226	0.953
0	324	249.221836078679	2.641
0	326	250.464625043794	1.242
0	328	253.219331462401	2.754
0	330	253.41177396546	0.192
0	332	254.06224036496	0.65
0	334	256.13965672301	2.077
0	336	257.835223319939	1.695
0	338	259.535027665318	1.699
0	340	262.130335357272	2.595
0	342	262.926503830588	0.796
0	344	264.453410713466	1.526
0	346	266.023154872235	1.569
0	348	268.773323741973	2.75
0	350	269.055145259945	0.281
0	352	271.818618095944	2.763
0	354	273.546457581453	1.727
0	356	273.795795041367	0.249
0	358	276.583683634873	2.787
0	360	277.416839326962	0.833
0	362	278.37254619179	0.955
0	364	278.40061629703	0.028
0	366	280.402847425777	2.002
0	368	282.929873663231	2.527
0	370	283.32526724925	0.395
0	372	285.266789664977	1.941
0	374	287.415771258526	2.148
0	376	289.939929625016	2.524
0	378	290.80814789794	0.868
0	380	291.602338390887	0.794
0	382	292.151912481288	0.549
0	384	293.345374736233	1.193
0	386	295.104913535292	1.759
0	388	296.763377987777	1.658
0	390	296.823700639417	0.06
0	392	297.318522021172	0.494
0	394	299.805342106146	2.486
0	396	300.914766393366	1.109
0	398	300.928852839625	0.014
0	400	301.368178129426	0.439
0	402	303.401627747339	2.033
0	404	305.110482960471	1.708
0	406	305.920506866413	0.81
0	408	308.031718708805	2.111
0	410	310.237300770122	2.205
0	412	311.102730067444	0.865
0	414	313.989295702192	2.886
0	416	315.289159893754	1.299
0	418	316.035419313002	0.746
0	420	318.303739387307	2.268
0	422	320.032211394978	1.728
0	424	321.220506229668	1.188
0	426	322.996632009043	1.776
0	428	325.68474717694	2.688
0	430	327.401502881429	1.716
0	432	329.3182661219	1.916
0	434	329.987511013864	0.669
0	436	332.662174306341	2.674
0	438	335.520421334073	2.858
0	440	337.560588052725	2.04
0	442	338.901964188316	1.341
0	444	340.249557384052	1.347
0	446	342.788783382387	2.539
0	448	345.72449615411	2.935
0	450	347.822933986546	2.098
0	452	348.171539716418	0.348
0	454	349.063850571397	0.892
0	456	351.36492167925	2.301
0	458	353.806315138233	2.441
0	460	355.041775563727	1.235
0	462	356.231292780251	1.189
0	464	358.257610011841	2.026
0	466	360.900919614355	2.643
0	468	361.650308439503	0.749
0	470	363.394127067173	1.743
0	472	364.333782063559	0.939
0	474	366.978988142213	2.645
0	476	369.875236798072	2.896
0	478	371.952831572614	2.077
0	480	373.718226822785	1.765
0	482	375.893989667057	2.175
0	484	377.872994909522	1.979
0	486	379.376968058751	1.503
0	488	380.976586813799	1.599
0	490	383.844837733072	2.868
0	492	384.536436802468	0.691
0	494	386.468407392029	1.931
0	496	387.653015268494	1.184
0	498	388.924580400337	1.271
0	500	390.781006083351	1.856
0	502	392.60018573398	1.819
0	504	394.024788298637	1.424
0	506	394.082367900519	0.057
0	508	395.492764465737	1.41
0	510	396.397488914423	0.904
0	512	398.545712515006	2.148
0	514	400.526233130127	1.98
0	516	401.390206141623	0.863
0	518	402.260438971447	0.87
0	520	403.410825649502	1.15
0	522	405.264871930231	1.854
0	524	407.512381438392	2.247
0	526	408.798687534167	1.286
0	528	411.434044107555	2.635
0	530	411.84046631329	0.406
0	532	412.149056393181	0.308
0	534	413.043903376668	0.894
0	536	413.321025036502	0.277
0	538	415.03091977117	1.709
0	540	416.093059764471	1.062
0	542	417.865678053344	1.772
0	544	419.521126818605	1.655
0	546	421.244102586055	1.722
0	548	421.344977867318	0.1
0	550	423.304580313613	1.959
0	552	426.211465611582	2.906
0	554	428.167775434668	1.956
0	556	429.130767165909	0.962
0	558	430.425022469361	1.294
0	560	431.088810517446	0.663
0	562	433.778450312319	2.689
0	564	434.202242020977	0.423
0	566	435.304927635932	1.102
0	568	435.596707415761	0.291
0	570	436.904302173754	1.307
0	572	439.856428880006	2.952
0	574	442.532198954601	2.675
0	576	443.313221740298	0.781
0	578	445.731803715689	2.418
0	580	447.342871267576	1.611
0	582	449.45453702425	2.111
0	584	450.798315545305	1.343
0	586	451.098996205016	0.3
0	588	451.39770345948	0.298
0	590	454.156151298427	2.758
0	592	455.213086280034	1.056
0	594	457.355810175178	2.142
0	596	458.76355769019	1.407
0	598	461.760098698776	2.996
0	600	464.283519088285	2.523
0	602	464.731864002295	0.448
0	604	467.445807235077	2.713
0	606	470.05018541682	2.604
0	608	470.16286357026	0.112
0	610	470.650342364324	0.487
0	612	472.175288715161	1.524
0	614	474.021967417555	1.846
0	616	474.522509971395	0.5
0	618	474.893969918595	0.371
0	620	477.231122973136	2.337
0	622	479.775147655041	2.544
0	624	482.369947533582	2.594
0	626	484.791904414531	2.421
0	628	486.026094587745	1.234
0	630	487.733396820716	1.707
0	632	488.15331457019	0.419
0	634	489.374864463221	1.221
0	636	489.474531622363	0.099
0	638	489.682032593053	0.207
0	640	492.629757463226	2.947
0	642	494.722043780602	2.092
0	644	495.84191603888	1.119
0	646	497.20254407962	1.36
0	648	498.462770182632	1.26
0	650	500.628936998073	2.166
0	652	500.780701336443	0.151
0	654	503.379848314441	2.599
0	656	504.476336613522	1.096
0	658	507.402901149812	2.926
0	660	507.452785058171	0.049
0	662	510.020195087176	2.567
0	664	510.712422111994	0.692
0	666	510.747564356532	0.035
0	668	513.042299450366	2.294
0	670	514.122233627588	1.079
0	672	516.954604189834	2.832
0	674	519.144575875011	2.189
0	676	521.394573618184	2.249
0	678	521.909462650764	0.514
0	680	522.927674098863	1.018
0	682	524.49078390793	1.563
0	684	525.959430734153	1.468
0	686	526.122444692292	0.163
0	688	527.139400041654	1.016
0	690	527.739389617919	0.599
0	692	528.277860421912	0.538
0	694	528.333425804266	0.055
0	696	528.846385582575	0.512
0	698	531.227478689972	2.381
0	700	532.617831618517	1.39
0	702	533.289605666642	0.671
0	704	535.913324552813	2.623
0	706	536.949379588469	1.036
0	708	539.781738841432	2.832
0	710	542.565982719409	2.784
0	712	544.390741322181	1.824
0	714	546.503984520203	2.113
0	716	548.293950758633	1.789
0	718	548.38946753041	0.095
0	720	550.740400274509	2.35
0	722	551.234482744002	0.494
0	724	552.734561625394	1.5
0	726	554.598996845531	1.864
0	728	554.750107021761	0.151
0	730	556.481792777535	1.731
0	732	558.579087010343	2.097
0	734	559.292765455079	0.713
0	736	562.269954642039	2.977
0	738	565.072596647302	2.802
0	740	565.874384249319	0.801
0	742	567.716282106927	1.841
0	744	569.753553961395	2.037
0	746	571.360452353247	1.606
0	748	573.953296680693	2.592
0	750	575.723026613929	1.769
0	752	577.975559354751	2.252
0	754	580.165925433618	2.19
0	756	583.059394730712	2.893
0	758	583.995229717335	0.935
0	760	585.657957025562	1.662
0	762	586.852620227719	1.194
0	764	587.489791733669	0.637
0	766	588.119322995879	0.629
0	768	588.786652666275	0.667
0	770	589.345231682519	0.558
0	772	590.001479786113	0.656
0	774	592.834596951716	2.833
0	776	594.543317547292	1.708
0	778	596.761969937003	2.218
0	780	598.118297051397	1.356
0	782	599.58967345696	1.471
0	784	602.500383511643	2.91
0	786	603.182627399211	0.682
0	788	605.224261481772	2.041
0	790	605.987330930066	0.763
0	792	606.243217631234	0.255
0	794	606.417305118628	0.174
0	796	606.586560122427	0.169
0	798	607.889810009152	1.303
0	800	609.353323127134	1.463
0	802	610.288710757615	0.935
0	804	612.931724433545	2.643
0	806	615.02075489074	2.089
0	808	617.949968061633	2.929
0	810	619.083223573388	1.133
0	812	620.936197330933	1.852
0	814	621.47500836336	0.538
0	816	623.102504694126	1.627
0	818	623.176540880454	0.074
0	820	625.740381629662	2.563
0	822	625.942130522094	0.201
0	824	628.173634149124	2.231
0	826	630.211812476385	2.038
0	828	631.647601455673	1.435
0	830	633.008691974207	1.361
0	832	635.039936703154	2.031
0	834	636.649674329198	1.609
0	836	638.470809512063	1.821
0	838	641.160823382893	2.69
0	840	643.304914181344	2.144
0	842	646.275931019326	2.971
0	844	647.684422581912	1.408
0	846	648.335113524915	0.65
0	848	649.703157395114	1.368
0	850	651.692392005808	1.989
0	852	654.411646272279	2.719
0	854	655.201613406408	0.789
0	856	655.613274669032	0.411
0	858	655.67522768326	0.061
0	860	656.362885652332	0.687
0	862	658.638021608105	2.275
0	864	661.282777820237	2.644
0	866	662.242829254584	0.96
0	868	664.956104186352	2.713
0	870	666.106495860021	1.15
0	872	668.043849659141	1.937
0	874	669.808801011404	1.764
0	876	670.782849929284	0.974
0	878	673.275995302235	2.493
0	880	674.83512887893	1.559
0	882	676.722074425768	1.886
0	884	676.722240476858	0
0	886	679.340192449501	2.617
0	888	680.275773111021	0.935
0	890	681.096399210848	0.82
0	892	682.372753822932	1.276
0	894	684.766894313961	2.394
0	896	687.422907306801	2.656
0	898	687.979815136397	0.556
0	900	690.019453501085	2.039
0	902	692.877828475775	2.858
0	904	694.246217792842	1.368
0	906	696.3086826112	2.062
0	908	697.758908463863	1.45
0	910	698.405431497132	0.646
0	912	700.771649761347	2.366
0	914	703.613761545148	2.842
0	916	704.302087032225	0.688
0	918	706.494654439844	2.192
0	920	709.135547253292	2.64
0	922	709.897372189432	0.761
0	924	710.838449381746	0.941
0	926	711.478385306418	0.639
0	928	714.350737874385	2.872
0	930	715.905340008426	1.554
0	932	717.320594735898	1.415
0	934	717.397582876252	0.076
0	936	719.532334340958	2.134
0	938	720.154744577117	0.622
0	940	720.615827487537	0.461
0	942	721.889883883053	1.274
0	944	724.081210424646	2.191
0	946	725.203720360284	1.122
0	948	727.142513665359	1.938
0	950	728.53323993365	1.39
0	952	729.177882143284	0.644
0	954	730.010768268478	0.832
0	956	730.570142924308	0.559
0	958	732.3304959603	1.76
0	960	734.753236755251	2.422
0	962	737.344803559116	2.591
0	964	739.586041971796	2.241
0	966	739.938637544156	0.352
0	968	741.963179579458	2.024
0	970	743.515316912892	1.552
0	972	744.345998169376	0.83
0	974	744.742202498472	0.396
0	976	745.266929115156	0.524
0	978	747.417508154862	2.15
0	980	749.530930940049	2.113
0	982	750.71911005139	1.188
0	984	752.108560640818	1.389
0	986	753.804824563895	1.696
0	988	756.326110169978	2.521
0	990	756.875949688709	0.549
0	992	757.49054697341	0.614
0	994	757.925090261024	0.434
0	996	758.41996687533	0.494
0	998	759.884135729155	1.464
0	1000	760.258634911837	0.374
0	1002	761.325473116931	1.066
0	1004	763.491715099184	2.166
0	1006	766.31301095382	2.821
0	1008	766.404369851096	0.091
0	1010	768.700345608393	2.295
0	1012	770.941328321338	2.24
0	1014	773.187319194885	2.245
0	1016	773.465107670739	0.277
0	1018	776.176266889307	2.711
0	1020	776.828618372544	0.652
0	1022	777.078885676791	0.25
0	1024	779.326648926814	2.247
0	1026	780.983226341181	1.656
0	1028	783.17830761637	2.195
0	1030	784.931735833394	1.753
0	1032	785.068579741506	0.136
0	1034	787.95438889203	2.885
0	1036	788.581859976038	0.627
0	1038	789.458302568163	0.876
0	1040	790.319047704556	0.86
0	1042	791.041534036149	0.722
0	1044	793.073323956209	2.031
0	1046	793.374205789978	0.3
0	1048	793.563320667699	0.189
0	1050	793.612609561516	0.049
0	1052	795.279557273241	1.666
0	1054	798.068145227602	2.788
0	1056	798.095865437977	0.027
0	1058	800.105615064718	2.009
0	1060	802.604729348777	2.499
0	1062	804.960188079609	2.355
0	1064	807.913176381246	2.952
0	1066	808.758366693959	0.845
0	1068	810.86885105002	2.11
0	1070	812.628081559886	1.759
0	1072	813.172975176696	0.544
0	1074	813.364840974083	0.191
0	1076	814.902021370578	1.537
0	1078	816.358904150996	1.456
0	1080	818.100245542807	1.741
0	1082	821.032730948628	2.932
0	1084	823.395357408776	2.362
0	1086	826.024873136059	2.629
0	1088	827.844299522676	1.819
0	1090	828.858776390767	1.014
0	1092	829.513984935107	0.655
0	1094	832.398695408115	2.884
0	1096	833.764201859692	1.365
0	1098	834.459306736225	0.695
0	1100	837.095915952911	2.636
0	1102	839.943872418235	2.847
0	1104	841.420677137774	1.476
0	1106	844.244810252663	2.824
0	1108	846.391493709971	2.146
0	1110	848.789101463956	2.397
0	1112	850.24758013918	1.458
0	1114	852.138923945817	1.891
0	1116	854.2645683924	2.125
0	1118	856.887432302095	2.622
0	1120	858.381852987435	1.494
0	1122	859.260913839544	0.879
0	1124	861.794564072954	2.533
0	1126	864.341394735247	2.546
0	1128	864.924421393758	0.583
0	1130	866.778051469688	1.853
0	1132	869.098029514289	2.319
0	1134	869.137740084649	0.039
0	1136	872.060516088716	2.922
0	1138	873.102216623937	1.041
0	1140	875.689145965948	2.586
0	1142	876.133568546017	0.444
0	1144	878.474848493449	2.341
0	1146	881.420336654158	2.945
0	1148	884.375433495482	2.955
0	1150	885.810544415125	1.435
0	1152	888.071253228913	2.26
0	1154	889.563427331605	1.492
0	1156	889.575571648291	0.012
0	1158	891.49398919775	1.918
0	1160	892.302427506753	0.808
0	1162	893.408181315967	1.105
0	1164	894.639657740462	1.231
0	1166	895.050358562711	0.41
0	1168	896.335030043478	1.284
0	1170	898.801383248278	2.466
0	1172	899.69490871367	0.893
0	1174	900.264452455081	0.569
0	1176	901.467849479504	1.203
0	1178	903.001806426542	1.533
0	1180	903.363777416041	0.361
0	1182	904.03672848803	0.672
0	1184	906.978827508614	2.942
0	1186	907.272360966988	0.293
0	1188	908.490722429454	1.218
0	1190	911.07729697179	2.586
0	1192	912.7849292415	1.707
0	1194	915.703687712065	2.918
0	1196	916.73450421051	1.03
0	1198	919.617008174051	2.882
0	1200	921.983626496027	2.366
0	1202	924.703292990084	2.719
0	1204	925.937410235851	1.234
0	1206	928.259552244776	2.322
0	1208	929.337366496193	1.077
0	1210	930.336801965003	0.999
0	1212	931.535298715792	1.198
0	1214	931.778602892979	0.243
0	1216	932.68409551585	0.905
0	1218	933.90581901905	1.221
0	1220	936.231478365817	2.325
0	1222	936.928180790487	0.696
0	1224	939.706819588532	2.778
0	1226	940.10428248763	0.397
0	1228	941.080213415184	0.975
0	1230	941.240494947628	0.16
0	1232	944.099106961143	2.858
0	1234	946.275890065337	2.176
0	1236	946.317735259867	0.041
0	1238	946.352017625215	0.034
0	1240	947.952414653942	1.6
0	1242	950.264156900326	2.311
0	1244	951.177902991165	0.913
0	1246	951.618742916015	0.44
0	1248	954.267322911163	2.648
0	1250	954.505889171482	0.238
0	1252	955.257757330759	0.751
0	1254	955.526566430208	0.268
0	1256	957.558801903602	2.032
0	1258	959.574945312439	2.016
0	1260	962.006217597498	2.431
0	1262	962.742319235558	0.736
0	1264	964.038763378727	1.296
0	1266	965.300381764051	1.261
0	1268	967.556785318049	2.256
0	1270	969.228891677669	1.672
0	1272	971.717698404313	2.488
0	1274	974.299351918724	2.581
0	1276	975.436453236247	1.137
0	1278	977.617586027811	2.181
0	1280	977.907234870809	0.289
0	1282	978.718218581498	0.81
0	1284	979.486637330361	0.768
0	1286	979.881085717798	0.394
0	1288	981.656891209286	1.775
0	1290	981.823014159899	0.166
0	1292	983.252445771571	1.429
0	1294	984.157241673188	0.904
0	1296	985.621045387562	1.463
0	1298	986.407399831319	0.786
0	1300	987.782943492502	1.375
0	1302	989.15136518467	1.368
0	1304	990.725143032361	1.573
0	1306	992.774987034014	2.049
0	1308	994.101032992106	1.326
0	1310	996.187909330919	2.086
0	1312	998.745814101517	2.557
0	1314	999.596370646942	0.85
0	1316	1000.896687575828	1.3
0	1318	1002.036468429936	1.139
0	1320	1004.517079532824	2.48
0	1322	1005.060532421318	0.543
0	1324	1006.588558618656	1.528
0	1326	1008.954195162027	2.365
0	1328	1009.213326103964	0.259
0	1330	1009.383870322702	0.17
0	1332	1011.363989907762	1.98
0	1334	1013.454981633209	2.09
0	1336	1014.074765450301	0.619
0	1338	1016.410851640839	2.336
0	1340	1018.952677590985	2.541
0	1342	1021.284900264794	2.332
0	1344	1023.328977665145	2.044
0	1346	1024.107245361878	0.778
0	1348	1024.642347422408	0.535
0	1350	1025.763786840931	1.121
0	1352	1025.973363893087	0.209
0	1354	1027.736162803349	1.762
0	1356	1027.76522732431	0.029
0	1358	1028.583693015137	0.818
0	1360	1031.25984200065	2.676
0	1362	1032.372400400908	1.112
0	1364	1032.772796032931	0.4
0	1366	1033.363958865851	0.591
0	1368	1035.701534778327	2.337
0	1370	1037.081102414504	1.379
0	1372	1039.856592704291	2.775
0	1374	1039.990429596259	0.133
0	1376	1042.135965842736	2.145
0	1378	1044.535353492462	2.399
0	1380	1046.007809342566	1.472
0	1382	1046.238678674429	0.23
0	1384	1047.647173590475	1.408
0	1386	1049.203679033305	1.556
0	1388	1051.851806894626	2.648
0	1390	1052.772237195616	0.92
0	1392	1054.237467380689	1.465
0	1394	1055.970096227696	1.732
0	1396	1057.213798661699	1.243
0	1398	1060.092098693579	2.878
0	1400	1060.614434540022	0.522
0	1402	1062.551145263465	1.936
0	1404	1063.977013596782	1.425
0	1406	1064.083100905392	0.106
0	1408	1066.434044808598	2.35
0	1410	1067.725252127258	1.291
0	1412	1069.394540406514	1.669
0	1414	1070.924590966182	1.53
0	1416	1071.404192203174	0.479
0	1418	1073.012724701532	1.608
0	1420	1073.444212803601	0.431
0	1422	1075.488390339755	2.044
0	1424	1077.436779434776	1.948
0	1426	1078.269567718014	0.832
0	1428	1079.887238508772	1.617
0	1430	1080.273820211861	0.386
0	1432	1081.250874511415	0.977
0	1434	1082.428901555233	1.178
0	1436	1082.869943228999	0.441
0	1438	1085.739160409879	2.869
0	1440	1086.218770609919	0.479
0	1442	1086.780163288565	0.561
0	1444	1087.168400301581	0.388
0	1446	1089.88035215622	2.711
0	1448	1091.617119318556	1.736
0	1450	1093.248537179299	1.631
0	1452	1093.525317689387	0.276
0	1454	1094.896051954927	1.37
0	1456	1097.627686111473	2.731
0	1458	1100.273810356373	2.646
0	1460	1100.522725590488	0.248
0	1462	1101.898537459999	1.375
0	1464	1104.299672836421	2.401
0	1466	1106.472175744811	2.172
0	1468	1109.103568649601	2.631
0	1470	1110.300644630782	1.197
0	1472	1110.581022995274	0.28
0	1474	1113.293156179815	2.712
0	1476	1114.572073813743	1.278
0	1478	1116.642148874217	2.07
0	1480	1118.061810881813	1.419
0	1482	1120.160677049757	2.098
0	1484	1121.901268372993	1.74
0	1486	1122.884429565846	0.983
0	1488	1125.033162081364	2.148
0	1490	1127.303498020146	2.27
0	1492	1127.384704980517	0.081
0	1494	1129.292888150068	1.908
0	1496	1131.48708017518	2.194
0	1498	1132.207140996337	0.72
0	1500	1134.508031514689	2.3
0	1502	1134.989647981926	0.481
0	1504	1135.018947277899	0.029
0	1506	1137.408121702244	2.389
0	1508	1138.332980192016	0.924
0	1510	1141.210480000806	2.877
0	1512	1141.909076424763	0.698
0	1514	1143.283492899482	1.374
0	1516	1144.793775179173	1.51
0	1518	1146.566727668495	1.772
0	1520	1149.42789181227	2.861
0	1522	1152.00105974286	2.573
0	1524	1153.674493641575	1.673
0	1526	1155.046164003649	1.371
0	1528	1155.338570063218	0.292
0	1530	1158.194193487504	2.855
0	1532	1160.059228959476	1.865
0	1534	1161.78648243121	1.727
0	1536	1164.375550282403	2.589
0	1538	1166.837851641682	2.462
0	1540	1167.310748454864	0.472
0	1542	1170.037279589317	2.726
0	1544	1173.014568153518	2.977
0	1546	1175.461139627482	2.446
0	1548	1175.716142836242	0.255
0	1550	1176.19438622797	0.478
0	1552	1176.477759975224	0.283
0	1554	1178.364455293614	1.886
0	1556	1180.265278956603	1.9
0	1558	1181.460581732897	1.195
0	1560	1184.308474171657	2.847
0	1562	1184.496613019362	0.188
0	1564	1187.30685245081	2.81
0	1566	1188.578949206259	1.272
0	1568	1189.921084104555	1.342
0	1570	1190.697136301531	0.776
0	1572	1192.880225312647	2.183
0	1574	1195.427340229724	2.547
0	1576	1197.654054162775	2.226
0	1578	1197.75396804184	0.099
0	1580	1198.674926199469	0.92
0	1582	1201.551874363779	2.876
0	1584	1201.911188408716	0.359
0	1586	1202.977294957482	1.066
0	1588	1204.308930996789	1.331
0	1590	1205.379051666225	1.07
0	1592	1206.554374634738	1.175
0	1594	1206.603360149062	0.048
0	1596	1208.198907694996	1.595
0	1598	1208.754604668573	0.555
0	1600	1211.290677721829	2.536
0	1602	1212.494456212952	1.203
0	1604	1214.103279825284	1.608
0	1606	1216.891154065479	2.787
0	1608	1218.931964533154	2.04
0	1610	1219.230809311599	0.298
0	1612	1221.058342045622	1.827
0	1614	1223.894246645954	2.835
0	1616	1224.189680656169	0.295
0	1618	1226.798146255531	2.608
0	1620	1227.074229005708	0.276
0	1622	1228.436716202863	1.362
0	1624	1228.60461369388	0.167
0	1626	1229.584716354014	0.98
0	1628	1229.844313823601	0.259
0	1630	1230.542546220107	0.698
0	1632	1231.25406609148	0.711
0	1634	1233.097460211704	1.843
0	1636	1235.615999124695	2.518
0	1638	1235.715222891637	0.099
0	1640	1237.282334489499	1.567
0	1642	1237.329152690929	0.046
0	1644	1238.868377290417	1.539
0	1646	1240.154764447578	1.286
0	1648	1242.104260370119	1.949
0	1650	1242.30848259873	0.204
0	1652	1243.942255228742	1.633
0	1654	1244.698078201835	0.755
0	1656	1244.795474090132	0.097
0	1658	1245.458956825997	0.663
0	1660	1247.199411984517	1.74
0	1662	1247.958985557531	0.759
0	1664	1250.27225271378	2.313
0	1666	1250.665418417876	0.393
0	1668	1251.794098162077	1.128
0	1670	1251.830206831669	0.036
0	1672	1253.303281053885	1.473
0	1674	1253.64973393244	0.346
0	1676	1256.594652973099	2.944
0	1678	1258.45009376433	1.855
0	1680	1259.184047990928	0.733
0	1682	1262.10681664197	2.922
0	1684	1263.229786227208	1.122
0	1686	1266.200821245538	2.971
0	1688	1266.337800171442	0.136
0	1690	1267.564962454123	1.227
0	1692	1268.495165385754	0.93
0	1694	1268.984028656484	0.488
0	1696	1271.478586859285	2.494
0	1698	1273.394872123125	1.916
0	1700	1275.815940636192	2.421
0	1702	1277.286856665025	1.47
0	1704	1279.206929130462	1.92
0	1706	1282.175158454786	2.968
0	1708	1283.279465662763	1.104
0	1710	1283.475378281419	0.195
0	1712	1284.413638159615	0.938
0	1714	1286.763341474795	2.349
0	1716	1289.168849925493	2.405
0	1718	1290.034045434772	0.865
0	1720	1290.245387002575	0.211
0	1722	1290.969642857305	0.724
0	1724	1293.020361744548	2.05
0	1726	1295.007875456224	1.987
0	1728	1296.150063190591	1.142
0	1730	1296.888252740475	0.738
0	1732	1298.790045598038	1.901
0	1734	1300.787622940476	1.997
0	1736	1303.568260216136	2.78
0	1738	1305.120185755641	1.551
0	1740	1307.682006100873	2.561
0	1742	1308.954273062041	1.272
0	1744	1310.447306997823	1.493
0	1746	1312.111370431707	1.664
0	1748	1313.394873580645	1.283
0	1750	1314.256028139481	0.861
0	1752	1316.723706479866	2.467
0	1754	1318.843430602441	2.119
0	1756	1321.058110345139	2.214
0	1758	1322.302680955718	1.244
0	1760	1323.644112472639	1.341
0	1762	1324.725749150601	1.081
0	1764	1327.632458258171	2.906
0	1766	1330.118429005595	2.485
0	1768	1331.207912761934	1.089
0	1770	1333.982813510561	2.774
0	1772	1335.175414005277	1.192
0	1774	1335.313435938192	0.138
0	1776	1337.529483912728	2.216
0	1778	1338.227364884672	0.697
0	1780	1339.574615165574	1.347
0	1782	1340.620173255896	1.045
0	1784	1343.432026347594	2.811
0	1786	1345.876925791829	2.444
0	1788	1346.648626242281	0.771
0	1790	1349.605100533442	2.956
0	1792	1350.750379934191	1.145
0	1794	1353.657295045193	2.906
0	1796	1355.748719876149	2.091
0	1798	1358.463564902527	2.714
0	1800	1361.154775221582	2.691
0	1802	1362.044444018958	0.889
0	1804	1362.407623650256	0.363
0	1806	1365.383657382784	2.976
0	1808	1366.10829444647	0.724
0	1810	1366.856554575713	0.748
0	1812	1367.541345417017	0.684
0	1814	1367.859063892376	0.317
0	1816	1369.327591858322	1.468
0	1818	1372.180449683435	2.852
0	1820	1374.855017730949	2.674
0	1822	1375.555278497731	0.7
0	1824	1376.629600923026	1.074
0	1826	1378.698905719427	2.069
0	1828	1379.854617989139	1.155
0	1830	1380.02968704559	0.175
0	1832	1382.779868088645	2.75
0	1834	1384.971995396755	2.192
0	1836	1385.313445314282	0.341
0	1838	1387.958605956735	2.645
0	1840	1389.851982592821	1.893
0	1842	1390.669293286029	0.817
0	1844	1391.067738286435	0.398
0	1846	1392.204908973986	1.137
0	1848	1393.327642722504	1.122
0	1850	1394.450531271502	1.122
0	1852	1395.423745855439	0.973
0	1854	1397.670110612858	2.246
0	1856	1399.710457228806	2.04
0	1858	1400.423878954008	0.713
0	1860	1402.810483194871	2.386
0	1862	1403.326042493323	0.515
0	1864	1404.837843321713	1.511
0	1866	1406.185718266044	1.347
0	1868	1407.074445426448	0.888
0	1870	1407.987850639953	0.913
0	1872	1410.645737436584	2.657
0	1874	1413.163304798987	2.517
0	1876	1414.218916490425	1.055
0	1878	1414.932141961048	0.713
0	1880	1417.147312974075	2.215
0	1882	1418.65448134321	1.507
0	1884	1420.320565123793	1.666
0	1886	1423.148315931654	2.827
0	1888	1423.752869069327	0.604
0	1890	1425.65486215519	1.901
0	1892	1427.300419442805	1.645
0	1894	1429.902287659452	2.601
0	1896	1431.461216136564	1.558
0	1898	1434.281845217089	2.82
0	1900	1435.328193194915	1.046
0	1902	1437.580487787009	2.252
0	1904	1437.654347656511	0.073
0	1906	1439.753072840844	2.098
0	1908	1440.199560730236	0.446
0	1910	1443.103457443167	2.903
0	1912	1443.499013549399	0.395
0	1914	1446.482215913695	2.983
0	1916	1448.605968298607	2.123
0	1918	1449.96143334334	1.355
0	1920	1452.088649702009	2.127
0	1922	1452.301259041049	0.212
0	1924	1454.136504293869	1.835
0	1926	1455.014886387142	0.878
0	1928	1457.030607443752	2.015
0	1930	1457.487671552209	0.457
0	1932	1458.830219159351	1.342
0	1934	1460.082678274467	1.252
0	1936	1462.170909779827	2.088
0	1938	1462.56477777076	0.393
0	1940	1463.699756200174	1.134
0	1942	1465.512109616287	1.812
0	1944	1465.812205773061	0.3
0	1946	1466.960629948629	1.148
0	1948	1469.841400296409	2.88
0	1950	1472.527557950449	2.686
0	1952	1472.744861289375	0.217
0	1954	1475.648245307133	2.903
0	1956	1475.706147120549	0.057
0	1958	1477.346801810647	1.64
0	1960	1480.28552156848	2.938
0	1962	1481.109992280352	0.824
0	1964	1481.555426530988	0.445
0	1966	1483.332117784984	1.776
0	1968	1484.108224736044	0.776
0	1970	1486.7985082059	2.69
0	1972	1487.445094649663	0.646
0	1974	1488.665294674907	1.22
0	1976	1490.405031875923	1.739
0	1978	1492.061266686285	1.656
0	1980	1494.988521753095	2.927
0	1982	1495.803480062384	0.814
0	1984	1496.62250677285	0.819
0	1986	1497.98883921209	1.366
