version 2
run General-1-20161124-17:05:56-3477
attr configname General
attr datetime 20161124-17:05:56
attr experiment General
attr inifile omnetpp.ini
attr iterationvars ""
attr iterationvars2 $repetition=1
attr measurement ""
attr network Bar1
attr processid 3477
attr repetition 1
attr replication #1
attr resultdir results
attr runnumber 1
attr seedset 1

vector 0  Bar1.k.o  TimeBetweenReception:vector  ETV
attr source  TimeBetweenReception
attr title  "TimeBetweenReception, vector"
0	2	1.251065995311	1.251
0	4	4.242620419711	2.991
0	6	6.403593887575	2.16
0	8	9.201265971176	2.797
0	10	9.201609114417	0
0	12	9.585982457734	0.384
0	14	10.492980160983	0.906
0	16	13.490101707168	2.997
0	18	13.93036938482	0.44
0	20	14.638636313612	0.708
0	22	14.91565210023	0.277
0	24	16.105394278653	1.189
0	26	16.664174912497	0.558
0	28	17.827907133149	1.163
0	30	18.864589308389	1.036
0	32	20.873827429489	2.009
0	34	22.064129835461	1.19
0	36	24.870747053298	2.806
0	38	26.487197248964	1.616
0	40	29.026130003622	2.538
0	42	30.283713560784	1.257
0	44	31.223534099757	0.939
0	46	33.279192601796	2.055
0	48	34.852837089915	1.573
0	50	35.466193836881	0.613
0	52	36.79655251815	1.33
0	54	39.430904829176	2.634
0	56	40.119636489311	0.688
0	58	40.201799277216	0.082
0	60	41.80504099885	1.603
0	62	43.816443521529	2.011
0	64	46.558329588733	2.741
0	66	47.81024400168	1.251
0	68	49.181858429219	1.371
0	70	50.857927911216	1.676
0	72	52.150023621507	1.292
0	74	52.571184432367	0.421
0	76	55.388567817165	2.817
0	78	55.982872267021	0.594
0	80	58.318039973499	2.335
0	82	60.720273672603	2.402
0	84	62.868185205152	2.147
0	86	65.772969920654	2.904
0	88	68.18124243035	2.408
0	90	69.121514984407	0.94
0	92	69.399917415111	0.278
0	94	71.476885265904	2.076
0	96	73.031342910603	1.554
0	98	75.660510348855	2.629
0	100	78.255571084796	2.595
0	102	80.939391076332	2.683
0	104	83.426831808407	2.487
0	106	83.681964429561	0.255
0	108	86.170774523634	2.488
0	110	86.28793887631	0.117
0	112	87.107088808436	0.819
0	114	87.616580076283	0.509
0	116	87.794309667545	0.177
0	118	90.428737180308	2.634
0	120	92.440321303905	2.011
0	122	92.735361813103	0.295
0	124	94.514558363474	1.779
0	126	95.777881225572	1.263
0	128	97.792843500619	2.014
0	130	100.666512096535	2.873
0	132	101.901875733399	1.235
0	134	103.501371601365	1.599
0	136	104.09402428195	0.592
0	138	106.169655620122	2.075
0	140	107.038544551471	0.868
0	142	107.985091453187	0.946
0	144	108.411451851951	0.426
0	146	110.470954625869	2.059
0	148	112.820898043459	2.349
0	150	115.3247750639	2.503
0	152	116.562391599176	1.237
0	154	116.617256439525	0.054
0	156	116.719770369587	0.102
0	158	118.97020330676	2.25
0	160	120.842293256662	1.872
0	162	123.808876519093	2.966
0	164	125.790783693084	1.981
0	166	128.035280652346	2.244
0	168	128.930766547799	0.895
0	170	129.772098524498	0.841
0	172	131.110502026512	1.338
0	174	133.478340022967	2.367
0	176	134.144713668155	0.666
0	178	134.454391704409	0.309
0	180	134.674484227088	0.22
0	182	136.018164800715	1.343
0	184	137.425880375088	1.407
0	186	140.151666888504	2.725
0	188	140.440183665373	0.288
0	190	141.321026095192	0.88
0	192	144.031136609151	2.71
0	194	144.894462638305	0.863
0	196	145.252934059597	0.358
0	198	145.643019767016	0.39
0	200	147.217417916054	1.574
0	202	147.275518791288	0.058
0	204	147.526387807218	0.25
0	206	149.562894398816	2.036
0	208	152.313478401866	2.75
0	210	152.948362735104	0.634
0	212	155.679707874548	2.731
0	214	156.47634784738	0.796
0	216	157.373138180007	0.896
0	218	158.847857660851	1.474
0	220	160.601025032349	1.753
0	222	160.761112665529	0.16
0	224	162.458848751154	1.697
0	226	164.18120157137	1.722
0	228	166.023016526368	1.841
0	230	166.463202242977	0.44
0	232	169.332809219374	2.869
0	234	171.100725831235	1.767
0	236	171.883662775396	0.782
0	238	173.982937860074	2.099
0	240	174.675984124424	0.693
0	242	174.982987415748	0.307
0	244	176.583332894374	1.6
0	246	177.825500852665	1.242
0	248	180.67531525344	2.849
0	250	182.758515727477	2.083
0	252	184.237694507934	1.479
0	254	185.480232306527	1.242
0	256	187.102033831881	1.621
0	258	187.251894208373	0.149
0	260	189.548349529974	2.296
0	262	191.156038755787	1.607
0	264	191.292075930865	0.136
0	266	193.283459877366	1.991
0	268	193.703358238101	0.419
0	270	195.248025560755	1.544
0	272	197.625236298427	2.377
0	274	200.459020574115	2.833
0	276	200.548424654411	0.089
0	278	202.308089770846	1.759
0	280	204.957466185795	2.649
0	282	207.667671924461	2.71
0	284	209.290036499271	1.622
0	286	209.702460607285	0.412
0	288	211.046401156117	1.343
0	290	211.46423018631	0.417
0	292	214.140637791952	2.676
0	294	216.562811663611	2.422
0	296	217.69556469913	1.132
0	298	218.888595200846	1.193
0	300	220.503869284879	1.615
0	302	220.999931866539	0.496
0	304	222.956828501079	1.956
0	306	225.739354236986	2.782
0	308	226.82313730731	1.083
0	310	227.866434884959	1.043
0	312	229.57946057129	1.713
0	314	231.831896879015	2.252
0	316	233.745406314967	1.913
0	318	235.923400277275	2.177
0	320	236.302344919651	0.378
0	322	238.952263193906	2.649
0	324	241.022876962789	2.07
0	326	242.893893581352	1.871
0	328	244.837141768777	1.943
0	330	247.08996908041	2.252
0	332	248.15178635577	1.061
0	334	249.198481371629	1.046
0	336	251.488180543299	2.289
0	338	252.297964224595	0.809
0	340	253.367559375245	1.069
0	342	256.055218021389	2.687
0	344	258.313583072046	2.258
0	346	259.597856642915	1.284
0	348	262.241882129809	2.644
0	350	265.13640227728	2.894
0	352	265.171409860257	0.035
0	354	267.161734355152	1.99
0	356	268.656061563412	1.494
0	358	270.521148723088	1.865
0	360	270.742524756122	0.221
0	362	271.086762665774	0.344
0	364	273.447617087516	2.36
0	366	276.296084867095	2.848
0	368	276.48828684795	0.192
0	370	277.838023247433	1.349
0	372	278.903954337121	1.065
0	374	280.639123159231	1.735
0	376	283.464634002655	2.825
0	378	284.689044415022	1.224
0	380	285.828454285397	1.139
0	382	286.539535213264	0.711
0	384	288.828295414804	2.288
0	386	291.538433964134	2.71
0	388	293.853218950334	2.314
0	390	295.574257414791	1.721
0	392	296.478338916323	0.904
0	394	296.486949890622	0.008
0	396	298.805167320653	2.318
0	398	300.656602069971	1.851
0	400	301.115391537317	0.458
0	402	302.09532624367	0.979
0	404	303.831228039463	1.735
0	406	305.41240235721	1.581
0	408	305.439426343658	0.027
0	410	308.097252629234	2.657
0	412	310.224380196307	2.127
0	414	311.296189477669	1.071
0	416	312.708111892922	1.411
0	418	315.43371732929	2.725
0	420	317.727495040747	2.293
0	422	319.597575391645	1.87
0	424	320.999753447717	1.402
0	426	321.047217170244	0.047
0	428	321.854220319308	0.807
0	430	324.642532022206	2.788
0	432	327.137609790547	2.495
0	434	329.210300548237	2.072
0	436	330.864275364207	1.653
0	438	333.856243918884	2.991
0	440	334.06648840313	0.21
0	442	334.583509935068	0.517
0	444	336.000935059276	1.417
0	446	336.412342309023	0.411
0	448	338.640636790314	2.228
0	450	341.438423184914	2.797
0	452	342.014291413132	0.575
0	454	344.104745901193	2.09
0	456	345.497680423785	1.392
0	458	345.695680944486	0.198
0	460	346.386769356909	0.691
0	462	348.653158512437	2.266
0	464	350.177901125052	1.524
0	466	352.439529704633	2.261
0	468	353.065234629442	0.625
0	470	355.834308251743	2.769
0	472	355.982220988958	0.147
0	474	358.116795259532	2.134
0	476	359.673380885743	1.556
0	478	360.046193772698	0.372
0	480	360.563028843612	0.516
0	482	360.622669239766	0.059
0	484	361.811609104513	1.188
0	486	361.890242066239	0.078
0	488	362.212337991227	0.322
0	490	362.297257458563	0.084
0	492	363.826688293139	1.529
0	494	364.565321502746	0.738
0	496	364.871727199997	0.306
0	498	367.451811051467	2.58
0	500	368.317964549414	0.866
0	502	369.934457747736	1.616
0	504	370.629733138024	0.695
0	506	372.28819905804	1.658
0	508	375.191202834952	2.903
0	510	377.71729551489	2.526
0	512	378.55225204281	0.834
0	514	378.924771994124	0.372
0	516	379.625639577168	0.7
0	518	380.46319061914	0.837
0	520	380.737859940161	0.274
0	522	382.495137743889	1.757
0	524	384.205337717435	1.71
0	526	387.11412495445	2.908
0	528	388.36790456926	1.253
0	530	390.050995228584	1.683
0	532	391.154524950082	1.103
0	534	391.210466820285	0.055
0	536	393.649451735201	2.438
0	538	396.05134975445	2.401
0	540	396.920629759557	0.869
0	542	397.619552579713	0.698
0	544	399.771727385702	2.152
0	546	402.193042959556	2.421
0	548	404.031887230467	1.838
0	550	405.195469167087	1.163
0	552	406.476198638094	1.28
0	554	409.066824196142	2.59
0	556	411.322443104119	2.255
0	558	413.563808022768	2.241
0	560	414.847245928368	1.283
0	562	416.515966640322	1.668
0	564	417.801113868833	1.285
0	566	418.210479550299	0.409
0	568	419.296192898883	1.085
0	570	419.47594598355	0.179
0	572	419.935961435551	0.46
0	574	420.29999178881	0.364
0	576	423.111562766602	2.811
0	578	423.245218390833	0.133
0	580	425.994448010345	2.749
0	582	426.316930380185	0.322
0	584	428.662805768196	2.345
0	586	429.339933784213	0.677
0	588	431.18892061268	1.848
0	590	433.327887565596	2.138
0	592	433.435885872692	0.107
0	594	435.115036810516	1.679
0	596	437.078008125304	1.962
0	598	437.115676071263	0.037
0	600	437.50498490967	0.389
0	602	437.720907758923	0.215
0	604	438.603986174568	0.883
0	606	441.505815163489	2.901
0	608	442.588259428042	1.082
0	610	444.292560816045	1.704
0	612	445.116496275646	0.823
0	614	445.72637599893	0.609
0	616	445.948282992701	0.221
0	618	446.70526023279	0.756
0	620	447.161671704613	0.456
0	622	449.393149276497	2.231
0	624	449.878004865255	0.484
0	626	450.464293305762	0.586
0	628	453.280428399565	2.816
0	630	455.024505188456	1.744
0	632	456.13790687453	1.113
0	634	459.047966842772	2.91
0	636	459.198021096177	0.15
0	638	461.738507494563	2.54
0	640	463.961374166189	2.222
0	642	464.680917456514	0.719
0	644	465.576958185063	0.896
0	646	467.058267324698	1.481
0	648	467.671341697221	0.613
0	650	469.531208833215	1.859
0	652	472.476478738246	2.945
0	654	474.963421430207	2.486
0	656	477.642485065387	2.679
0	658	478.112859249116	0.47
0	660	480.390905646841	2.278
0	662	480.446634242312	0.055
0	664	482.39999593841	1.953
0	666	482.610062372872	0.21
0	668	482.729112878676	0.119
0	670	484.188148198185	1.459
0	672	486.629777283642	2.441
0	674	488.448765662035	1.818
0	676	490.736485074975	2.287
0	678	492.443039387932	1.706
0	680	493.808886797868	1.365
0	682	494.760974013947	0.952
0	684	496.356453352843	1.595
0	686	499.322301820621	2.965
0	688	499.650310011815	0.328
0	690	501.389545683052	1.739
0	692	501.827643913917	0.438
0	694	502.96806744137	1.14
0	696	504.494433657268	1.526
0	698	506.147278312595	1.652
0	700	506.794229138644	0.646
0	702	509.030232430437	2.236
0	704	511.779563538731	2.749
0	706	513.78726221854	2.007
0	708	515.173719763059	1.386
0	710	515.96847843798	0.794
0	712	516.365280261963	0.396
0	714	516.564284760041	0.199
0	716	518.85700959759	2.292
0	718	519.967262201944	1.11
0	720	520.605463286398	0.638
0	722	522.494615812089	1.889
0	724	522.717391114451	0.222
0	726	523.347913151143	0.63
0	728	523.634170884268	0.286
0	730	525.892437559321	2.258
0	732	526.379054093036	0.486
0	734	526.578663540307	0.199
0	736	527.648054586026	1.069
0	738	528.428999892204	0.78
0	740	528.714923327091	0.285
0	742	531.129187023501	2.414
0	744	531.558976043948	0.429
0	746	532.139278886375	0.58
0	748	534.932317671833	2.793
0	750	536.850700316952	1.918
0	752	538.580452970463	1.729
0	754	540.154463890243	1.574
0	756	542.673399524299	2.518
0	758	545.447823427852	2.774
0	760	547.317699771609	1.869
0	762	548.107590095375	0.789
0	764	549.081142596437	0.973
0	766	549.279025862694	0.197
0	768	551.463060783457	2.184
0	770	553.668258680498	2.205
0	772	555.236468554942	1.568
0	774	557.553002643168	2.316
0	776	559.76343703014	2.21
0	778	562.486884605607	2.723
0	780	562.983102943983	0.496
0	782	565.779019145995	2.795
0	784	567.840194042541	2.061
0	786	567.882048754023	0.041
0	788	569.162481285633	1.28
0	790	569.865567544477	0.703
0	792	572.051239734517	2.185
0	794	573.901574798395	1.85
0	796	576.170580969193	2.269
0	798	579.017629932846	2.847
0	800	580.210463763681	1.192
0	802	583.0609921203	2.85
0	804	585.836592444219	2.775
0	806	587.506552013336	1.669
0	808	588.117082966492	0.61
0	810	590.863902033074	2.746
0	812	590.887910165359	0.024
0	814	592.812608785462	1.924
0	816	595.591660918901	2.779
0	818	596.761684072903	1.17
0	820	597.645218712744	0.883
0	822	599.103190722876	1.457
0	824	599.604045500514	0.5
0	826	601.416976968991	1.812
0	828	601.489281844581	0.072
0	830	603.137925602496	1.648
0	832	604.493930422236	1.356
0	834	607.272474703147	2.778
0	836	609.697490935448	2.425
0	838	612.453691242497	2.756
0	840	613.558821804124	1.105
0	842	614.743448646042	1.184
0	844	616.571069610772	1.827
0	846	619.460857213476	2.889
0	848	619.56540038623	0.104
0	850	620.087267383235	0.521
0	852	621.150999084581	1.063
0	854	621.529987646034	0.378
0	856	621.765547554474	0.235
0	858	622.170785020804	0.405
0	860	624.250340615166	2.079
0	862	625.767327124485	1.516
0	864	625.805465123383	0.038
0	866	625.870039547793	0.064
0	868	627.248675390146	1.378
0	870	630.092586022568	2.843
0	872	632.97653779434	2.883
0	874	635.45788420178	2.481
0	876	636.460439863382	1.002
0	878	636.50549680274	0.045
0	880	637.921747079585	1.416
0	882	638.450335860718	0.528
0	884	638.766509611392	0.316
0	886	639.762700329534	0.996
0	888	641.271928058936	1.509
0	890	641.664918591034	0.392
0	892	644.321988173759	2.657
0	894	646.750460245878	2.428
0	896	648.353592256083	1.603
0	898	649.387802220414	1.034
0	900	650.232232517329	0.844
0	902	653.052554977358	2.82
0	904	654.116309036732	1.063
0	906	655.862351574701	1.746
0	908	658.551192320649	2.688
0	910	661.187688289442	2.636
0	912	661.912155698518	0.724
0	914	664.446359034161	2.534
0	916	664.518011312931	0.071
0	918	667.234188248868	2.716
0	920	670.131368663627	2.897
0	922	671.511009453562	1.379
0	924	672.800913143204	1.289
0	926	674.439953591907	1.639
0	928	675.478819125797	1.038
0	930	677.874629890546	2.395
0	932	679.605832789326	1.731
0	934	680.462989352178	0.857
0	936	680.842567827087	0.379
0	938	682.313328393968	1.47
0	940	685.163458315423	2.85
0	942	686.960789240431	1.797
0	944	687.901621731464	0.94
0	946	687.948221552884	0.046
0	948	690.806714926148	2.858
0	950	692.587159147253	1.78
0	952	693.242338852258	0.655
0	954	694.543367913225	1.301
0	956	695.28946851287	0.746
0	958	697.711550087202	2.422
0	960	700.302955485647	2.591
0	962	701.248689904343	0.945
0	964	701.95449488447	0.705
0	966	704.633160998113	2.678
0	968	707.078461169963	2.445
0	970	708.812032820423	1.733
0	972	710.443724531214	1.631
0	974	710.995755147188	0.552
0	976	711.569535957416	0.573
0	978	713.933323659701	2.363
0	980	715.699843467911	1.766
0	982	717.535937010543	1.836
0	984	717.680347396759	0.144
0	986	717.842075220309	0.161
0	988	717.889694159617	0.047
0	990	719.150275201303	1.26
0	992	719.299408246529	0.149
0	994	721.336614758474	2.037
0	996	722.534860632614	1.198
0	998	725.290665966923	2.755
0	1000	727.021377858705	1.73
0	1002	727.022583927958	0.001
0	1004	729.625136292306	2.602
0	1006	732.555413723923	2.93
0	1008	734.913900434738	2.358
0	1010	736.043641385157	1.129
0	1012	736.807749627158	0.764
0	1014	739.729100255063	2.921
0	1016	739.975864979904	0.246
0	1018	741.790013282094	1.814
0	1020	742.263281271094	0.473
0	1022	744.749818700132	2.486
0	1024	745.378297342685	0.628
0	1026	747.102431866339	1.724
0	1028	748.354580246842	1.252
0	1030	750.23880885355	1.884
0	1032	751.281878903041	1.043
0	1034	752.13860773458	0.856
0	1036	754.238259825388	2.099
0	1038	755.998759838052	1.76
0	1040	758.091288325375	2.092
0	1042	760.341353617607	2.25
0	1044	760.565525296143	0.224
0	1046	763.140466810203	2.574
0	1048	763.249875916633	0.109
0	1050	765.51512246509	2.265
0	1052	767.883321989094	2.368
0	1054	769.977493735961	2.094
0	1056	772.679079377325	2.701
0	1058	775.272517677163	2.593
0	1060	775.286507615586	0.013
0	1062	776.254550617653	0.968
0	1064	777.047160530229	0.792
0	1066	779.059526903321	2.012
0	1068	780.461658817715	1.402
0	1070	781.814280622405	1.352
0	1072	782.893729204544	1.079
0	1074	784.040037456666	1.146
0	1076	784.760690354508	0.72
0	1078	785.993124413536	1.232
0	1080	786.062630604486	0.069
0	1082	787.267069361172	1.204
0	1084	788.862073680851	1.595
0	1086	789.814225533977	0.952
0	1088	790.204809688032	0.39
0	1090	792.070567793912	1.865
0	1092	793.754944670248	1.684
0	1094	795.045686500614	1.29
0	1096	795.549178896939	0.503
0	1098	798.470585140867	2.921
0	1100	799.733809410829	1.263
0	1102	801.767212076114	2.033
0	1104	803.821275800235	2.054
0	1106	804.416985464982	0.595
0	1108	805.238686439815	0.821
0	1110	806.518789475319	1.28
0	1112	806.548788657413	0.029
0	1114	807.578827376013	1.03
0	1116	808.23842627043	0.659
0	1118	810.63134269137	2.392
0	1120	810.727211348713	0.095
0	1122	813.367206209573	2.639
0	1124	816.17182280263	2.804
0	1126	818.883348654723	2.711
0	1128	821.229624713771	2.346
0	1130	823.217784158187	1.988
0	1132	824.770566120045	1.552
0	1134	825.581190915545	0.81
0	1136	825.630579208955	0.049
0	1138	826.387679318664	0.757
0	1140	827.284079990582	0.896
0	1142	829.848773824749	2.564
0	1144	831.47093244153	1.622
0	1146	833.054076376603	1.583
0	1148	835.633727084844	2.579
0	1150	838.040210336911	2.406
0	1152	838.595553244928	0.555
0	1154	840.313018807208	1.717
0	1156	840.563657847464	0.25
0	1158	842.763085441895	2.199
0	1160	842.895902333779	0.132
0	1162	844.452937220221	1.557
0	1164	845.784361170137	1.331
0	1166	848.097012913784	2.312
0	1168	848.154969168359	0.057
0	1170	849.861543156437	1.706
0	1172	850.062639308858	0.201
0	1174	851.459768936268	1.397
0	1176	853.895083477252	2.435
0	1178	854.923150201558	1.028
0	1180	856.832022042244	1.908
0	1182	857.036650075109	0.204
0	1184	859.355201367519	2.318
0	1186	860.488973897413	1.133
0	1188	862.606020326025	2.117
0	1190	862.844898572655	0.238
0	1192	863.559531318022	0.714
0	1194	866.507982667999	2.948
0	1196	866.641236493827	0.133
0	1198	867.186075062488	0.544
0	1200	868.029725736935	0.843
0	1202	870.465301816348	2.435
0	1204	873.060570725236	2.595
0	1206	875.685455679424	2.624
0	1208	875.904825613597	0.219
0	1210	877.970065357392	2.065
0	1212	879.951061046911	1.98
0	1214	881.659544280959	1.708
0	1216	882.221680019512	0.562
0	1218	882.704594326667	0.482
0	1220	884.271454030876	1.566
0	1222	885.672094097123	1.4
0	1224	888.383731885342	2.711
0	1226	889.419248035172	1.035
0	1228	890.844706247555	1.425
0	1230	891.519826108351	0.675
0	1232	894.060892956325	2.541
0	1234	895.838428547367	1.777
0	1236	898.35476677352	2.516
0	1238	899.291576287005	0.936
0	1240	899.709416435094	0.417
0	1242	902.458333090407	2.748
0	1244	904.079246775241	1.62
0	1246	906.808153353625	2.728
0	1248	908.209409299067	1.401
0	1250	908.980764192289	0.771
0	1252	909.636812902281	0.656
0	1254	909.969486810725	0.332
0	1256	911.291971776627	1.322
0	1258	911.870859976618	0.578
0	1260	913.311694525641	1.44
0	1262	914.810447037213	1.498
0	1264	915.810299953439	0.999
0	1266	917.996056968339	2.185
0	1268	918.022795008255	0.026
0	1270	918.647378325455	0.624
0	1272	920.16377011779	1.516
0	1274	920.907870795338	0.744
0	1276	922.92731263255	2.019
0	1278	925.482328267295	2.555
0	1280	925.648706231725	0.166
0	1282	926.896252399769	1.247
0	1284	927.368991284624	0.472
0	1286	929.219046491424	1.85
0	1288	931.034356199896	1.815
0	1290	931.735354613273	0.7
0	1292	932.693025989451	0.957
0	1294	932.998927765985	0.305
0	1296	935.670479121146	2.671
0	1298	937.218050155782	1.547
0	1300	939.589170721353	2.371
0	1302	941.020593677641	1.431
0	1304	941.673091334284	0.652
0	1306	942.131106282345	0.458
0	1308	942.73173326812	0.6
0	1310	944.597151950926	1.865
0	1312	946.63847215147	2.041
0	1314	948.270502511405	1.632
0	1316	948.739153009832	0.468
0	1318	950.70156505191	1.962
0	1320	952.232648030848	1.531
0	1322	952.666284647996	0.433
0	1324	955.630478681058	2.964
0	1326	957.885062140405	2.254
0	1328	958.319137860315	0.434
0	1330	958.985285278635	0.666
0	1332	959.130185314679	0.144
0	1334	960.688240775365	1.558
0	1336	963.385432774659	2.697
0	1338	965.741320864988	2.355
0	1340	967.887309612698	2.145
0	1342	967.954300891833	0.066
0	1344	968.885284406358	0.93
0	1346	969.858371793517	0.973
0	1348	971.037192595881	1.178
0	1350	973.655959733753	2.618
0	1352	973.898310922776	0.242
0	1354	976.432439750983	2.534
0	1356	977.488803685401	1.056
0	1358	979.10412546386	1.615
0	1360	979.107165303538	0.003
0	1362	981.706990116965	2.599
0	1364	983.580881557185	1.873
0	1366	986.430299528865	2.849
0	1368	987.031113746101	0.6
0	1370	989.510334726414	2.479
0	1372	991.385669495436	1.875
0	1374	993.948015829539	2.562
0	1376	994.912371325763	0.964
0	1378	995.208601534357	0.296
0	1380	995.350556221315	0.141
0	1382	997.30446922033	1.953
0	1384	999.474563475688	2.17
0	1386	1001.585114441336	2.11
0	1388	1003.862870443835	2.277
0	1390	1005.693592893648	1.83
0	1392	1006.912505796635	1.218
0	1394	1009.311351584261	2.398
0	1396	1011.424356667781	2.113
0	1398	1011.528070333171	0.103
0	1400	1013.284147972697	1.756
0	1402	1015.594864160278	2.31
0	1404	1018.50355768063	2.908
0	1406	1020.698743479549	2.195
0	1408	1021.610378762697	0.911
0	1410	1022.389473940469	0.779
0	1412	1023.330740084629	0.941
0	1414	1024.101947979526	0.771
0	1416	1024.781332820877	0.679
0	1418	1026.678242767918	1.896
0	1420	1028.695246446402	2.017
0	1422	1029.731138832624	1.035
0	1424	1032.067905558263	2.336
0	1426	1034.457671589906	2.389
0	1428	1035.995656697302	1.537
0	1430	1037.334095387244	1.338
0	1432	1039.179890186516	1.845
0	1434	1041.528138436134	2.348
0	1436	1041.66512193716	0.136
0	1438	1044.636537280156	2.971
0	1440	1045.974835796737	1.338
0	1442	1046.875580809069	0.9
0	1444	1049.779618769641	2.904
0	1446	1050.208636268032	0.429
0	1448	1051.287317180298	1.078
0	1450	1053.991242488138	2.703
0	1452	1055.653338948488	1.662
0	1454	1057.278017079448	1.624
0	1456	1058.512080302452	1.234
0	1458	1061.436301396917	2.924
0	1460	1064.334441087664	2.898
0	1462	1066.244254295704	1.909
0	1464	1066.853427826882	0.609
0	1466	1069.835166883411	2.981
0	1468	1072.813646585902	2.978
0	1470	1074.451859003154	1.638
0	1472	1076.429458898713	1.977
0	1474	1078.00873668933	1.579
0	1476	1080.43596841091	2.427
0	1478	1080.842252119665	0.406
0	1480	1082.216704754612	1.374
0	1482	1083.28382026659	1.067
0	1484	1085.945744425511	2.661
0	1486	1086.024400128039	0.078
0	1488	1087.626203128124	1.601
0	1490	1088.107388674036	0.481
0	1492	1089.839227013976	1.731
0	1494	1092.07613857648	2.236
0	1496	1094.828633467654	2.752
0	1498	1094.919832545785	0.091
0	1500	1095.862272122163	0.942
0	1502	1096.961901413729	1.099
0	1504	1099.140316724531	2.178
0	1506	1101.727355483207	2.587
0	1508	1104.143063000855	2.415
0	1510	1106.221096162205	2.078
0	1512	1107.661284942166	1.44
0	1514	1109.734111365848	2.072
0	1516	1111.196834483868	1.462
0	1518	1111.762744872816	0.565
0	1520	1114.286975058945	2.524
0	1522	1115.612687893663	1.325
0	1524	1117.279270505052	1.666
0	1526	1119.024002734324	1.744
0	1528	1119.833646608269	0.809
0	1530	1122.802901733652	2.969
0	1532	1124.263129871324	1.46
0	1534	1124.87484854924	0.611
0	1536	1125.702386248377	0.827
0	1538	1126.445584952817	0.743
0	1540	1127.121756380642	0.676
0	1542	1127.908275617505	0.786
0	1544	1129.848537360071	1.94
0	1546	1132.099054594743	2.25
0	1548	1134.862455331706	2.763
0	1550	1136.233381328391	1.37
0	1552	1136.834805611972	0.601
0	1554	1137.005593913825	0.17
0	1556	1139.645153227946	2.639
0	1558	1141.170701947747	1.525
0	1560	1142.568125057718	1.397
0	1562	1143.204005544525	0.635
0	1564	1145.378945907563	2.174
0	1566	1147.774758639265	2.395
0	1568	1148.683372601852	0.908
0	1570	1149.5753667557	0.891
0	1572	1151.04238865849	1.467
0	1574	1151.125206702374	0.082
0	1576	1151.736229687914	0.611
0	1578	1153.516527052488	1.78
0	1580	1153.782375829978	0.265
0	1582	1156.313897124942	2.531
0	1584	1156.81096604558	0.497
0	1586	1157.954014419795	1.143
0	1588	1159.463004017233	1.508
0	1590	1161.712578952064	2.249
0	1592	1164.075321973751	2.362
0	1594	1165.608746396129	1.533
0	1596	1168.319551996871	2.71
0	1598	1169.942407422218	1.622
0	1600	1170.60097968926	0.658
0	1602	1173.479282640836	2.878
0	1604	1175.693675545028	2.214
0	1606	1178.105558233319	2.411
0	1608	1178.878966912843	0.773
0	1610	1178.975936118962	0.096
0	1612	1180.668562354736	1.692
0	1614	1182.796724113153	2.128
0	1616	1183.194013015117	0.397
0	1618	1184.589017461968	1.395
0	1620	1185.705280483217	1.116
0	1622	1188.547927322314	2.842
0	1624	1188.796493707207	0.248
0	1626	1189.46079191424	0.664
0	1628	1190.977970576594	1.517
0	1630	1191.779186623618	0.801
0	1632	1193.862407180695	2.083
0	1634	1194.106829085369	0.244
0	1636	1195.477762807375	1.37
0	1638	1196.763619298563	1.285
0	1640	1197.847443435323	1.083
0	1642	1198.174499724508	0.327
0	1644	1200.622522240719	2.448
0	1646	1202.523882534802	1.901
0	1648	1202.661317091184	0.137
0	1650	1205.070206801622	2.408
0	1652	1206.233690168458	1.163
0	1654	1208.32409165565	2.09
0	1656	1209.699661190371	1.375
0	1658	1211.998295329726	2.298
0	1660	1214.205491682729	2.207
0	1662	1215.232854030309	1.027
0	1664	1217.961764875082	2.728
0	1666	1220.499319329839	2.537
0	1668	1221.331535727	0.832
0	1670	1222.617842050484	1.286
0	1672	1225.071147217164	2.453
0	1674	1227.543176813731	2.472
0	1676	1229.512124391953	1.968
0	1678	1231.391612868272	1.879
0	1680	1231.425453820247	0.033
0	1682	1231.855722965887	0.43
0	1684	1234.061784050875	2.206
0	1686	1234.296944750921	0.235
0	1688	1236.107428693195	1.81
0	1690	1236.162426609528	0.054
0	1692	1238.202484048419	2.04
0	1694	1238.402659028285	0.2
0	1696	1240.154538393236	1.751
0	1698	1241.530289832718	1.375
0	1700	1243.250852769456	1.72
0	1702	1243.590878544358	0.34
0	1704	1244.673930956499	1.083
0	1706	1244.757280983013	0.083
0	1708	1247.633380694763	2.876
0	1710	1249.897965131543	2.264
0	1712	1252.858793572738	2.96
0	1714	1254.043345007562	1.184
0	1716	1255.204751289898	1.161
0	1718	1257.445566773397	2.24
0	1720	1259.954106790462	2.508
0	1722	1261.311321249447	1.357
0	1724	1264.257748334185	2.946
0	1726	1265.608008569787	1.35
0	1728	1267.364067526051	1.756
0	1730	1268.798285045178	1.434
0	1732	1270.811081083008	2.012
0	1734	1272.233092863561	1.422
0	1736	1272.491862496577	0.258
0	1738	1274.901352500759	2.409
0	1740	1277.875704207441	2.974
0	1742	1279.082881755179	1.207
0	1744	1281.421382319398	2.338
0	1746	1284.135440783093	2.714
0	1748	1287.118535170315	2.983
0	1750	1287.229718300264	0.111
0	1752	1289.190787567041	1.961
0	1754	1291.512410599255	2.321
0	1756	1291.624694419076	0.112
0	1758	1292.00161854921	0.376
0	1760	1294.158886629838	2.157
0	1762	1296.01442733545	1.855
0	1764	1298.078775638697	2.064
0	1766	1298.109868413984	0.031
0	1768	1299.936307680543	1.826
0	1770	1301.55218953428	1.615
0	1772	1301.870823390299	0.318
0	1774	1301.879877274839	0.009
0	1776	1302.721931649355	0.842
0	1778	1305.575513003144	2.853
0	1780	1307.9041568816	2.328
0	1782	1310.620362983068	2.716
0	1784	1313.290861895291	2.67
0	1786	1315.678762714594	2.387
0	1788	1317.210560634948	1.531
0	1790	1319.956383589172	2.745
0	1792	1322.103507390461	2.147
0	1794	1322.540182088484	0.436
0	1796	1322.773518709681	0.233
0	1798	1323.246708906238	0.473
0	1800	1325.092621601868	1.845
0	1802	1325.655516610929	0.562
0	1804	1328.168928213866	2.513
0	1806	1330.0364159094	1.867
0	1808	1332.124432091351	2.088
0	1810	1334.841860585829	2.717
0	1812	1336.507038643101	1.665
0	1814	1339.476904172899	2.969
0	1816	1342.060473096773	2.583
0	1818	1344.19384045711	2.133
0	1820	1346.42980499238	2.235
0	1822	1348.625206235547	2.195
0	1824	1349.418854172791	0.793
0	1826	1352.146733775952	2.727
0	1828	1355.146041130399	2.999
0	1830	1356.348662318879	1.202
0	1832	1358.069858036221	1.721
0	1834	1358.819410070295	0.749
0	1836	1360.736586992613	1.917
0	1838	1361.256877496124	0.52
0	1840	1362.725976324158	1.469
0	1842	1363.084347468551	0.358
0	1844	1365.752471713565	2.668
0	1846	1368.190303460212	2.437
0	1848	1370.813834257872	2.623
0	1850	1371.254211366159	0.44
0	1852	1373.797581307572	2.543
0	1854	1374.590473741973	0.792
0	1856	1376.53364530623	1.943
0	1858	1378.990912829042	2.457
0	1860	1380.747648805595	1.756
0	1862	1381.679410564463	0.931
0	1864	1382.52415893295	0.844
0	1866	1385.471411266347	2.947
0	1868	1388.446373278258	2.974
0	1870	1389.246289383603	0.799
0	1872	1391.645272962732	2.398
0	1874	1393.246233006689	1.6
0	1876	1394.751141695055	1.504
0	1878	1395.69454271135	0.943
0	1880	1398.011488710047	2.316
0	1882	1400.743807217554	2.732
0	1884	1401.11664733871	0.372
0	1886	1402.21631726714	1.099
0	1888	1404.979370852217	2.763
0	1890	1406.280147842813	1.3
0	1892	1406.41465760952	0.134
0	1894	1407.9515357022	1.536
0	1896	1408.637350130343	0.685
0	1898	1411.454009564576	2.816
0	1900	1413.981468617666	2.527
0	1902	1414.074315629649	0.092
0	1904	1414.991030471847	0.916
0	1906	1417.141666460997	2.15
0	1908	1418.594631126365	1.452
0	1910	1421.267687978903	2.673
0	1912	1423.217848741431	1.95
0	1914	1423.299710415751	0.081
0	1916	1423.731538954405	0.431
0	1918	1425.29769270679	1.566
0	1920	1426.215087426808	0.917
0	1922	1427.193056847882	0.977
0	1924	1429.853818227286	2.66
0	1926	1432.432286185427	2.578
0	1928	1435.092811958613	2.66
0	1930	1436.768361600563	1.675
0	1932	1438.314011581922	1.545
0	1934	1440.384695202094	2.07
0	1936	1441.185957853897	0.801
0	1938	1442.544518352934	1.358
0	1940	1445.185548763006	2.641
0	1942	1447.070475886093	1.884
0	1944	1448.564425808128	1.493
0	1946	1449.434716375295	0.87
0	1948	1450.435034167936	1
0	1950	1450.463079902094	0.028
0	1952	1453.147169728048	2.684
0	1954	1454.877437538916	1.73
0	1956	1455.490886678204	0.613
0	1958	1456.425219315553	0.934
0	1960	1458.884033288324	2.458
0	1962	1460.435836083239	1.551
0	1964	1462.952349637153	2.516
0	1966	1465.701567190217	2.749
0	1968	1467.269955290465	1.568
0	1970	1468.549379653747	1.279
0	1972	1469.035193352013	0.485
0	1974	1469.777381458071	0.742
0	1976	1472.624312505809	2.846
0	1978	1473.738193800192	1.113
0	1980	1473.916541027356	0.178
0	1982	1476.71212436723	2.795
0	1984	1479.37162281874	2.659
0	1986	1482.182227956116	2.81
0	1988	1483.905260623418	1.723
0	1990	1486.438250477411	2.532
0	1992	1487.574791156672	1.136
0	1994	1490.335410702027	2.76
0	1996	1492.258126483749	1.922
0	1998	1492.941827360525	0.683
0	2000	1493.325248369466	0.383
0	2002	1493.5876950058	0.262
0	2004	1494.807803627088	1.22